 Gaussian 09, Revision A.01,
 Gaussian 09:  EM64L-G09RevA.01  8-May-2009

 ---------------------------------------------------
 # cam-b3lyp/6-31G* opt Freq=(savenormalmodes,raman)
 ---------------------------------------------------

 -----
 Title
 -----
 Symbolic Z-matrix:
 Charge =  0 Multiplicity = 1

 SCF Done:  E(RCAM-B3LYP) =  -169.815119172     A.U. after   14 cycles
 Optimization completed.
    -- Stationary point found.
 Normal termination of Gaussian 09 at Mon Oct 21 19:19:43 2019.

 ----------------------------------------------------------------------
 #N Geom=AllCheck Guess=TCheck SCRF=Check GenChk RCAM-B3LYP/6-31G(d) Fr
 eq
 ----------------------------------------------------------------------

 Title
 -----
 Redundant internal coordinates taken from checkpoint file:
 freq.chk
 Charge =  0 Multiplicity = 1

                         Standard orientation:
 ---------------------------------------------------------------------
 Center     Atomic      Atomic             Coordinates (Angstroms)
 Number     Number       Type             X           Y           Z
 ---------------------------------------------------------------------
      1          6           0       -0.161453    0.387024   -0.000100
      2          7           0        1.081733   -0.157452   -0.000076
      3          8           0       -1.194449   -0.245367    0.000068
      4          1           0        1.174611   -1.162764    0.000191
      5          1           0        1.912136    0.412757    0.000321
      6          1           0       -0.134568    1.492965    0.000079
 ---------------------------------------------------------------------

 SCF Done:  E(RCAM-B3LYP) =  -169.815119172     A.U. after    1 cycles

 The electronic state is 1-A.
 Alpha  occ. eigenvalues --  -19.18743 -14.43571 -10.36378  -1.11384  -0.98893
 Alpha  occ. eigenvalues --   -0.70007  -0.62817  -0.54796  -0.47732  -0.47204
 Alpha  occ. eigenvalues --   -0.33329  -0.31831
 Alpha virt. eigenvalues --    0.08893   0.12422   0.16106   0.21811   0.32234
 Alpha virt. eigenvalues --    0.40620   0.59229   0.61172   0.71289   0.74598
 Alpha virt. eigenvalues --    0.76744   0.77681   0.90434   0.92817   0.93910

 Mulliken atomic charges:
              1
     1  C    0.359704
     2  N   -0.709773
     3  O   -0.446755
     4  H    0.348340
     5  H    0.340929
     6  H    0.107557
 Sum of Mulliken atomic charges =   0.00000

 Dipole moment (field-independent basis, Debye):
    X=              3.7842    Y=              0.7919    Z=              0.0009  Tot=              3.8662
 Quadrupole moment (field-independent basis, Debye-Ang):
   XX=            -17.3288   YY=            -14.9936   ZZ=            -18.4208
   XY=             -1.0841   XZ=              0.0022   YZ=             -0.0002

  Exact polarizability:  27.645   0.882  21.053   0.000   0.000   9.598
 Approx polarizability:  34.605   3.495  23.347  -0.001   0.000  11.325

                     1                      2                      3
                     A                      A                      A
 Frequencies --   142.3528               569.7445               649.4052
 Red. masses --     1.2247                 2.4183                 1.2024
 Frc consts  --     0.0146                 0.4625                 0.2988
 IR Inten    --   276.3819                12.3963                22.4229
 Raman Activ --     0.5122                 1.4180                 1.4522

                     4                      5                      6
                     A                      A                      A
 Frequencies --  1062.4131              1073.8026              1299.1761
 Red. masses --     1.5537                 1.7384                 2.7085
 Frc consts  --     1.0332                 1.1810                 2.6935
 IR Inten    --     0.0091                 2.6458               100.4324
 Raman Activ --     3.1097                 5.4090                 3.8759

                     7                      8                      9
                     A                      A                      A
 Frequencies --  1448.8385              1647.8569              1873.7413
 Red. masses --     1.2179                 1.2546                 7.7175
 Frc consts  --     1.5062                 2.0072                15.9642
 IR Inten    --     4.6163                79.6484               379.0698
 Raman Activ --     7.9555                 5.1890                 6.9398

                    10                     11                     12
                     A                      A                      A
 Frequencies --  3011.6948              3625.2708              3754.7239
 Red. masses --     1.0873                 1.0456                 1.1056
 Frc consts  --     5.8105                 8.0966                 9.1834
 IR Inten    --   101.2815                42.0003                44.6046
 Raman Activ --   106.3370                97.3610                51.3129

 - Thermochemistry -
 -------------------
 Temperature   298.150 Kelvin.  Pressure   1.00000 Atm.
 Atom     1 has atomic number  6 and mass  12.00000

 Molecular mass:    45.02146 amu.
 Principal axes and moments of inertia in atomic units:
                           1         2         3
     Eigenvalues --    24.50590 158.68639 183.19229
           X            0.99982  -0.01921   0.00003
           Y            0.01921   0.99982   0.00008
           Z           -0.00003  -0.00008   1.00000
 This molecule is an asymmetric top.
 Rotational symmetry number  1.
 Rotational temperatures (Kelvin)      3.53441     0.54582     0.47280
 Rotational constants (GHZ):          73.64516    11.37301     9.85162
 Zero-point vibrational energy     120577.7 (Joules/Mol)
                                   28.81877 (Kcal/Mol)
 Warning -- explicit consideration of   2 degrees of freedom as
           vibrations may cause significant error
 Vibrational temperatures:    204.81   819.73   934.35  1528.57  1544.96
          (Kelvin)           1869.22  2084.55  2370.90  2695.89  4333.15
                             5215.95  5402.20

 Zero-point correction=                           0.045926 (Hartree/Particle)
 Thermal correction to Energy=                    0.049805
 Thermal correction to Enthalpy=                  0.050749
 Thermal correction to Gibbs Free Energy=         0.021113
 Sum of electronic and zero-point Energies=           -169.769194
 Sum of electronic and thermal Energies=              -169.765315
 Sum of electronic and thermal Enthalpies=            -169.764370
 Sum of electronic and thermal Free Energies=         -169.794006

                     E (Thermal)             CV                S
                      KCal/Mol        Cal/Mol-Kelvin    Cal/Mol-Kelvin
 Total                   31.253             10.817             62.374
 Electronic               0.000              0.000              0.000
 Translational            0.889              2.981             37.339
 Rotational               0.889              2.981             21.193
 Vibrational             29.475              4.855              3.841
 Vibration     1          0.616              1.911              2.772
 Vibration     2          0.926              1.097              0.505

 Optimization completed.
    -- Stationary point found.
 Normal termination of Gaussian 09 at Mon Oct 21 19:19:52 2019.
