 Gaussian 09, Revision A.01,
 Gaussian 09:  EM64L-G09RevA.01  8-May-2009

 -------------------------------------------------------
 # cam-b3lyp/6-31+G** force nosymm td(root=1,nstates=10)
 -------------------------------------------------------

 -----
 Title
 -----
 Symbolic Z-matrix:
 Charge =  0 Multiplicity = 1

                          Input orientation:
 ---------------------------------------------------------------------
 Center     Atomic      Atomic             Coordinates (Angstroms)
 Number     Number       Type             X           Y           Z
 ---------------------------------------------------------------------
      1          6           0       -0.160735    0.387687    0.000083
      2          7           0        1.080995   -0.158228   -0.000037
      3          8           0       -1.193398   -0.245313   -0.000066
      4          1           0        1.168705   -1.162517    0.000104
      5          1           0        1.909215    0.412186    0.000224
      6          1           0       -0.133284    1.494310   -0.000044
 ---------------------------------------------------------------------

 SCF Done:  E(RCAM-B3LYP) =  -169.837421278     A.U. after   11 cycles

 Excitation energies and oscillator strengths:

 Excited state symmetry could not be determined.
 Excited State   1:      Singlet-?Sym    5.7063 eV  217.28 nm  f=0.0009  <S**2>=0.000
      12 -> 15         0.65582
      12 -> 17        -0.24946
 This state for optimization and/or second-order correction.
 Copying the excited state density for this state as the 1-particle RhoCI density.

 Excited state symmetry could not be determined.
 Excited State   2:      Singlet-?Sym    6.9518 eV  178.35 nm  f=0.0207  <S**2>=0.000
      11 -> 13         0.69371

 Excited state symmetry could not be determined.
 Excited State   3:      Singlet-?Sym    7.0355 eV  176.23 nm  f=0.0013  <S**2>=0.000
      11 -> 15        -0.23122
      11 -> 17         0.10808
      12 -> 13         0.63183
      12 -> 16        -0.15222

 Excited state symmetry could not be determined.
 Excited State   4:      Singlet-?Sym    7.6290 eV  162.52 nm  f=0.0879  <S**2>=0.000
      11 -> 15         0.16190
      12 -> 14         0.66286
      12 -> 16        -0.13365

 Excited state symmetry could not be determined.
 Excited State   5:      Singlet-?Sym    7.8694 eV  157.55 nm  f=0.0009  <S**2>=0.000
      11 -> 14         0.67453
      11 -> 16         0.11497
      11 -> 19         0.14273

 Excited state symmetry could not be determined.
 Excited State   6:      Singlet-?Sym    7.9365 eV  156.22 nm  f=0.1597  <S**2>=0.000
      11 -> 15        -0.36876
      11 -> 17         0.16812
      12 -> 14         0.21460
      12 -> 16         0.52474

 Excited state symmetry could not be determined.
 Excited State   7:      Singlet-?Sym    8.2479 eV  150.32 nm  f=0.2436  <S**2>=0.000
      11 -> 15         0.43003
      11 -> 17        -0.19214
      12 -> 13         0.29951
      12 -> 16         0.41677

 Excited state symmetry could not be determined.
 Excited State   8:      Singlet-?Sym    8.4433 eV  146.84 nm  f=0.0117  <S**2>=0.000
      12 -> 15         0.24913
      12 -> 17         0.65660

 Excited state symmetry could not be determined.
 Excited State   9:      Singlet-?Sym    8.5385 eV  145.21 nm  f=0.0119  <S**2>=0.000
      11 -> 14        -0.12322
      11 -> 16         0.66981
      11 -> 18         0.14587

 Excited state symmetry could not be determined.
 Excited State  10:      Singlet-?Sym    8.8421 eV  140.22 nm  f=0.0162  <S**2>=0.000
      11 -> 15         0.28726
      11 -> 17         0.64171

 Alpha  occ. eigenvalues --  -19.21039 -14.45233 -10.37959  -1.13404  -1.00494
 Alpha  occ. eigenvalues --   -0.71346  -0.64158  -0.56198  -0.49507  -0.48913
 Alpha  occ. eigenvalues --   -0.35133  -0.33700
 Alpha virt. eigenvalues --    0.02578   0.05483   0.05524   0.07584   0.09006
 Alpha virt. eigenvalues --    0.12274   0.13175   0.17379   0.20478   0.23613
 Alpha virt. eigenvalues --    0.25567   0.27274   0.28408   0.30447   0.32657

 Mulliken atomic charges:
              1
     1  C    0.293751
     2  N   -0.531199
     3  O   -0.504873
     4  H    0.322258
     5  H    0.307068
     6  H    0.112994
 Sum of Mulliken atomic charges =   0.00000

 Dipole moment (field-independent basis, Debye):
    X=              4.0139    Y=              1.0131    Z=              0.0009  Tot=              4.1397
 Quadrupole moment (field-independent basis, Debye-Ang):
   XX=            -18.4502   YY=            -15.4671   ZZ=            -19.3008
   XY=             -1.2566   XZ=              0.0011   YZ=             -0.0001

 Normal termination of Gaussian 09 at Wed Oct 23 13:34:05 2019.
