 Gaussian 09, Revision A.01,
 Gaussian 09:  EM64L-G09RevA.01  8-May-2009

 ----------------------------------------------------
 # cam-b3lyp/6-31G* force nosymm td(root=3,nstates=8)
 ----------------------------------------------------

 -----
 Title
 -----
 Symbolic Z-matrix:
 Charge =  0 Multiplicity = 1

                          Input orientation:
 ---------------------------------------------------------------------
 Center     Atomic      Atomic             Coordinates (Angstroms)
 Number     Number       Type             X           Y           Z
 ---------------------------------------------------------------------
      1          6           0       -0.161453    0.387024   -0.000100
      2          7           0        1.081733   -0.157452   -0.000076
      3          8           0       -1.194449   -0.245367    0.000068
      4          1           0        1.174611   -1.162764    0.000191
      5          1           0        1.912136    0.412757    0.000321
      6          1           0       -0.134568    1.492965    0.000079
 ---------------------------------------------------------------------

 SCF Done:  E(RCAM-B3LYP) =  -169.815119173     A.U. after   14 cycles

 Excitation energies and oscillator strengths:

 Excited state symmetry could not be determined.
 Excited State   1:      Singlet-?Sym    5.7945 eV  213.97 nm  f=0.0011  <S**2>=0.000
      12 -> 13         0.70631

 Excited state symmetry could not be determined.
 Excited State   2:      Singlet-?Sym    8.0680 eV  153.67 nm  f=0.0880  <S**2>=0.000
      11 -> 13         0.60383
      12 -> 14         0.35137

 Excited state symmetry could not be determined.
 Excited State   3:      Singlet-?Sym    8.3972 eV  147.65 nm  f=0.0029  <S**2>=0.000
      10 -> 14         0.10442
      11 -> 14         0.69772
 This state for optimization and/or second-order correction.
 Copying the excited state density for this state as the 1-particle RhoCI density.

 Excited state symmetry could not be determined.
 Excited State   4:      Singlet-?Sym    9.2460 eV  134.09 nm  f=0.0003  <S**2>=0.000
      11 -> 15         0.69293

 Excited state symmetry could not be determined.
 Excited State   5:      Singlet-?Sym    9.3326 eV  132.85 nm  f=0.2632  <S**2>=0.000
      11 -> 13        -0.31294
      12 -> 14         0.57249
      12 -> 15        -0.25597

 Excited state symmetry could not be determined.
 Excited State   6:      Singlet-?Sym    9.6324 eV  128.72 nm  f=0.1463  <S**2>=0.000
      10 -> 13        -0.10214
      11 -> 13        -0.13886
      12 -> 14         0.19943
      12 -> 15         0.64607

 Excited state symmetry could not be determined.
 Excited State   7:      Singlet-?Sym   10.3531 eV  119.76 nm  f=0.0031  <S**2>=0.000
       9 -> 13         0.70435

 Excited state symmetry could not be determined.
 Excited State   8:      Singlet-?Sym   10.9156 eV  113.58 nm  f=0.0000  <S**2>=0.000
      11 -> 15         0.10827
      11 -> 16         0.68673

 Alpha  occ. eigenvalues --  -19.18743 -14.43571 -10.36378  -1.11384  -0.98893
 Alpha  occ. eigenvalues --   -0.70007  -0.62817  -0.54796  -0.47732  -0.47204
 Alpha  occ. eigenvalues --   -0.33329  -0.31831
 Alpha virt. eigenvalues --    0.08893   0.12422   0.16106   0.21811   0.32234
 Alpha virt. eigenvalues --    0.40620   0.59229   0.61172   0.71289   0.74598
 Alpha virt. eigenvalues --    0.76744   0.77681   0.90434   0.92817   0.93910

 Mulliken atomic charges:
              1
     1  C    0.359704
     2  N   -0.709773
     3  O   -0.446756
     4  H    0.348340
     5  H    0.340929
     6  H    0.107557
 Sum of Mulliken atomic charges =   0.00000

 Dipole moment (field-independent basis, Debye):
    X=              3.7842    Y=              0.7919    Z=              0.0009  Tot=              3.8662
 Quadrupole moment (field-independent basis, Debye-Ang):
   XX=            -17.3288   YY=            -14.9936   ZZ=            -18.4208
   XY=             -1.0841   XZ=              0.0022   YZ=             -0.0002

 Normal termination of Gaussian 09 at Mon Oct 21 19:45:41 2019.
