 Gaussian 09, Revision A.01,
 Gaussian 09:  EM64L-G09RevA.01  8-May-2009

 ----------------------------------------------------------------------
 # cam-b3lyp/aug-cc-pvdz force td(root=1,nstates=20,EqSolv) SCRF=PCM in
 t=(grid=ultrafine)
 ----------------------------------------------------------------------

 -----
 Title
 -----
 Symbolic Z-matrix:
 Charge =  0 Multiplicity = 1

                         Standard orientation:
 ---------------------------------------------------------------------
 Center     Atomic      Atomic             Coordinates (Angstroms)
 Number     Number       Type             X           Y           Z
 ---------------------------------------------------------------------
      1          6           0       -0.123707    0.476825    0.000079
      2          7           0        1.092856   -0.184429   -0.000087
      3          8           0       -1.221152   -0.285882   -0.000049
      4          1           0        1.138956   -1.189320    0.000230
      5          1           0        1.946584    0.347235    0.000247
      6          1           0       -0.224080    1.559193    0.000055
 ---------------------------------------------------------------------

 SCF Done:  E(RCAM-B3LYP) =  -169.845437820     A.U. after   11 cycles

 Excitation energies and oscillator strengths:

 Excited State   1:      Singlet-A      4.8011 eV  258.24 nm  f=0.0002  <S**2>=0.000
      12 -> 14         0.69889
 This state for optimization and/or second-order correction.
 Copying the excited state density for this state as the 1-particle RhoCI density.

 Excited State   2:      Singlet-A      6.2528 eV  198.29 nm  f=0.2744  <S**2>=0.000
      11 -> 14         0.66936
      11 -> 17        -0.13673
      12 -> 13        -0.10176

 Excited State   3:      Singlet-A      6.8702 eV  180.47 nm  f=0.0763  <S**2>=0.000
      12 -> 13         0.56826
      12 -> 15        -0.13844
      12 -> 16         0.31664
      12 -> 18        -0.17699

 Excited State   4:      Singlet-A      6.8830 eV  180.13 nm  f=0.0049  <S**2>=0.000
      11 -> 13         0.66260
      11 -> 15         0.10215
      11 -> 19        -0.13366
      11 -> 20        -0.12063

 Excited State   5:      Singlet-A      7.5756 eV  163.66 nm  f=0.0656  <S**2>=0.000
      12 -> 15         0.64183
      12 -> 16         0.14731
      12 -> 19        -0.16009
      12 -> 21        -0.11156

 Excited State   6:      Singlet-A      7.6161 eV  162.79 nm  f=0.0140  <S**2>=0.000
      11 -> 13        -0.10333
      11 -> 15         0.65753
      11 -> 18         0.11404
      11 -> 21        -0.16068

 Excited State   7:      Singlet-A      7.7735 eV  159.50 nm  f=0.0455  <S**2>=0.000
      11 -> 16         0.65375
      11 -> 18        -0.17488
      11 -> 23        -0.10266

 Excited State   8:      Singlet-A      7.8583 eV  157.77 nm  f=0.0694  <S**2>=0.000
      12 -> 13        -0.37030
      12 -> 16         0.50672
      12 -> 18        -0.27241

 Excited State   9:      Singlet-A      8.3574 eV  148.35 nm  f=0.0022  <S**2>=0.000
      12 -> 17         0.69020
      12 -> 25         0.11427

 Excited State  10:      Singlet-A      8.5286 eV  145.37 nm  f=0.0104  <S**2>=0.000
      11 -> 14         0.14395
      11 -> 17         0.68016

 Excited State  11:      Singlet-A      8.7230 eV  142.13 nm  f=0.0027  <S**2>=0.000
       9 -> 14         0.65100
      11 -> 18         0.21845

 Excited State  12:      Singlet-A      8.8408 eV  140.24 nm  f=0.0049  <S**2>=0.000
       9 -> 14        -0.24525
      11 -> 16         0.15185
      11 -> 18         0.60234
      11 -> 24        -0.13712

 Excited State  13:      Singlet-A      8.8668 eV  139.83 nm  f=0.0103  <S**2>=0.000
      12 -> 16         0.31940
      12 -> 18         0.59174
      12 -> 19         0.14347

 Excited State  14:      Singlet-A      9.1605 eV  135.35 nm  f=0.0032  <S**2>=0.000
      11 -> 13         0.10577
      11 -> 19         0.66718

 Excited State  15:      Singlet-A      9.2119 eV  134.59 nm  f=0.0069  <S**2>=0.000
      10 -> 14         0.14133
      12 -> 15         0.16051
      12 -> 18        -0.11200
      12 -> 19         0.63157

 Excited State  16:      Singlet-A      9.5432 eV  129.92 nm  f=0.1358  <S**2>=0.000
      10 -> 14         0.65086
      12 -> 19        -0.12795
      12 -> 23        -0.13740

 Excited State  17:      Singlet-A      9.9372 eV  124.77 nm  f=0.0230  <S**2>=0.000
      10 -> 14         0.13917
      12 -> 20         0.52244
      12 -> 23         0.36610
      12 -> 24        -0.14053
      12 -> 27        -0.10548

 Excited State  18:      Singlet-A     10.0304 eV  123.61 nm  f=0.0147  <S**2>=0.000
      10 -> 13         0.15970
      10 -> 15         0.13623
      11 -> 13         0.12699
      11 -> 20         0.54038
      11 -> 21         0.23629
      11 -> 23         0.23811

 Excited State  19:      Singlet-A     10.2804 eV  120.60 nm  f=0.0260  <S**2>=0.000
      10 -> 13        -0.41335
      10 -> 20         0.12013
      11 -> 16         0.10072
      11 -> 21        -0.15588
      11 -> 23         0.44600
      11 -> 24        -0.20003

 Excited State  20:      Singlet-A     10.3193 eV  120.15 nm  f=0.0001  <S**2>=0.000
      11 -> 15         0.16768
      11 -> 20        -0.30900
      11 -> 21         0.53584
      11 -> 23         0.13868
      11 -> 26         0.14219

 The electronic state is 1-A.
 Alpha  occ. eigenvalues --  -19.20612 -14.44989 -10.39472  -1.08648  -0.98739
 Alpha  occ. eigenvalues --   -0.71758  -0.62745  -0.57468  -0.48241  -0.46724
 Alpha  occ. eigenvalues --   -0.34311  -0.33900
 Alpha virt. eigenvalues --    0.01644   0.01843   0.03294   0.04338   0.07853
 Alpha virt. eigenvalues --    0.08103   0.09539   0.12984   0.14016   0.14903
 Alpha virt. eigenvalues --    0.16022   0.17772   0.20381   0.20749   0.20950

 Mulliken atomic charges:
              1
     1  C    0.910176
     2  N    0.123734
     3  O   -0.684720
     4  H   -0.093097
     5  H   -0.046554
     6  H   -0.209538
 Sum of Mulliken atomic charges =   0.00000

 Dipole moment (field-independent basis, Debye):
    X=              5.5386    Y=              1.7816    Z=              0.0014  Tot=              5.8181
 Quadrupole moment (field-independent basis, Debye-Ang):
   XX=            -19.1218   YY=            -14.5371   ZZ=            -19.5790
   XY=             -2.0086   XZ=              0.0017   YZ=             -0.0004

 Normal termination of Gaussian 09 at Mon Oct 28 19:56:04 2019.
