 Gaussian 09, Revision A.01,
 Gaussian 09:  EM64L-G09RevA.01  8-May-2009

 ----------------------------------------------------------------------
 # cam-b3lyp/aug-cc-pvdz opt(maxcycles=100) nosymm td(root=1,nstates=20
 ) SCRF=PCM int(grid=ultrafine)
 ----------------------------------------------------------------------

 -----
 Title
 -----
 Symbolic Z-matrix:
 Charge =  0 Multiplicity = 1

 SCF Done:  E(RCAM-B3LYP) =  -169.796663358     A.U. after   12 cycles
 SCF Done:  E(RCAM-B3LYP) =  -169.790354903     A.U. after   13 cycles
 SCF Done:  E(RCAM-B3LYP) =  -169.781985313     A.U. after   13 cycles
 SCF Done:  E(RCAM-B3LYP) =  -169.787412133     A.U. after   13 cycles
 SCF Done:  E(RCAM-B3LYP) =  -169.789570003     A.U. after   11 cycles
 SCF Done:  E(RCAM-B3LYP) =  -169.780277775     A.U. after   14 cycles
 SCF Done:  E(RCAM-B3LYP) =  -169.750443917     A.U. after   14 cycles
 SCF Done:  E(RCAM-B3LYP) =  -169.795965725     A.U. after   13 cycles
 SCF Done:  E(RCAM-B3LYP) =  -169.767671207     A.U. after   14 cycles
 SCF Done:  E(RCAM-B3LYP) =  -169.770341475     A.U. after   13 cycles
 SCF Done:  E(RCAM-B3LYP) =  -169.776710798     A.U. after   13 cycles
 SCF Done:  E(RCAM-B3LYP) =  -169.776254887     A.U. after   13 cycles
 SCF Done:  E(RCAM-B3LYP) =  -169.774731727     A.U. after   13 cycles
 SCF Done:  E(RCAM-B3LYP) =  -169.773842375     A.U. after   12 cycles
 SCF Done:  E(RCAM-B3LYP) =  -169.773742784     A.U. after   11 cycles

 Excitation energies and oscillator strengths:

 Excited state symmetry could not be determined.
 Excited State   1:      Singlet-?Sym    2.1579 eV  574.55 nm  f=0.0005  <S**2>=0.000
      11 -> 13        -0.12540
      12 -> 13         0.69219
 This state for optimization and/or second-order correction.
 Copying the excited state density for this state as the 1-particle RhoCI density.

 Excited state symmetry could not be determined.
 Excited State   2:      Singlet-?Sym    4.2056 eV  294.81 nm  f=0.0039  <S**2>=0.000
      11 -> 13         0.68869
      12 -> 13         0.12640

 Excited state symmetry could not be determined.
 Excited State   3:      Singlet-?Sym    5.6351 eV  220.02 nm  f=0.0642  <S**2>=0.000
      12 -> 14         0.65233
      12 -> 15         0.16041
      12 -> 18        -0.11766

 Excited state symmetry could not be determined.
 Excited State   4:      Singlet-?Sym    6.4627 eV  191.84 nm  f=0.0207  <S**2>=0.000
      12 -> 14        -0.15800
      12 -> 15         0.62964
      12 -> 16         0.17288
      12 -> 20         0.10685
      12 -> 22        -0.13020

 Excited state symmetry could not be determined.
 Excited State   5:      Singlet-?Sym    6.6575 eV  186.23 nm  f=0.0104  <S**2>=0.000
      12 -> 15        -0.14988
      12 -> 16         0.65161
      12 -> 24        -0.12449

 Excited state symmetry could not be determined.
 Excited State   6:      Singlet-?Sym    7.0114 eV  176.83 nm  f=0.0363  <S**2>=0.000
      10 -> 13         0.26840
      11 -> 14         0.12941
      12 -> 17        -0.60282

 Excited state symmetry could not be determined.
 Excited State   7:      Singlet-?Sym    7.1645 eV  173.05 nm  f=0.1834  <S**2>=0.000
       9 -> 13         0.13130
      10 -> 13        -0.59770
      11 -> 14         0.10510
      12 -> 17        -0.27053

 Excited state symmetry could not be determined.
 Excited State   8:      Singlet-?Sym    7.9187 eV  156.57 nm  f=0.0197  <S**2>=0.000
       9 -> 13         0.30826
      11 -> 15        -0.10905
      12 -> 14        -0.10284
      12 -> 18        -0.56009
      12 -> 19         0.14459
      12 -> 22         0.11239

 Excited state symmetry could not be determined.
 Excited State   9:      Singlet-?Sym    8.0513 eV  153.99 nm  f=0.0320  <S**2>=0.000
       9 -> 13         0.59629
      10 -> 13         0.14155
      11 -> 14        -0.15524
      12 -> 18         0.26120

 Excited state symmetry could not be determined.
 Excited State  10:      Singlet-?Sym    8.1482 eV  152.16 nm  f=0.0097  <S**2>=0.000
       9 -> 13        -0.10526
      11 -> 14        -0.60670
      11 -> 17        -0.12089
      11 -> 18         0.12054
      12 -> 17        -0.18609
      12 -> 18        -0.12735

 Excited state symmetry could not be determined.
 Excited State  11:      Singlet-?Sym    8.2281 eV  150.68 nm  f=0.0047  <S**2>=0.000
      11 -> 15        -0.13531
      11 -> 16        -0.13890
      12 -> 18         0.16205
      12 -> 19         0.63427

 Excited state symmetry could not be determined.
 Excited State  12:      Singlet-?Sym    8.6177 eV  143.87 nm  f=0.0565  <S**2>=0.000
      11 -> 15        -0.56311
      11 -> 20        -0.10507
      11 -> 22         0.10285
      12 -> 19        -0.14578
      12 -> 21         0.25440
      12 -> 23        -0.10604

 Excited state symmetry could not be determined.
 Excited State  13:      Singlet-?Sym    8.7163 eV  142.24 nm  f=0.0874  <S**2>=0.000
      11 -> 15        -0.11250
      11 -> 17         0.18010
      12 -> 18         0.11237
      12 -> 20         0.35969
      12 -> 21        -0.47775
      12 -> 22         0.21958

 Excited state symmetry could not be determined.
 Excited State  14:      Singlet-?Sym    8.9203 eV  138.99 nm  f=0.0173  <S**2>=0.000
      11 -> 15         0.14325
      11 -> 16         0.50933
      11 -> 17         0.10560
      11 -> 19         0.10924
      12 -> 19         0.15283
      12 -> 20         0.10787
      12 -> 21         0.21228
      12 -> 22         0.21384
      12 -> 24        -0.17583

 Excited state symmetry could not be determined.
 Excited State  15:      Singlet-?Sym    9.0131 eV  137.56 nm  f=0.0729  <S**2>=0.000
      11 -> 15        -0.24792
      11 -> 16         0.24669
      11 -> 17         0.17140
      12 -> 20        -0.39863
      12 -> 21        -0.21796
      12 -> 22        -0.16875
      12 -> 23         0.25326

 Excited state symmetry could not be determined.
 Excited State  16:      Singlet-?Sym    9.1088 eV  136.12 nm  f=0.0030  <S**2>=0.000
      11 -> 16         0.22432
      11 -> 17        -0.26533
      12 -> 15        -0.13974
      12 -> 20         0.16327
      12 -> 21        -0.17761
      12 -> 22        -0.42463
      12 -> 23        -0.27476

 Excited state symmetry could not be determined.
 Excited State  17:      Singlet-?Sym    9.2080 eV  134.65 nm  f=0.0358  <S**2>=0.000
      11 -> 17         0.44528
      12 -> 15        -0.10315
      12 -> 20         0.24453
      12 -> 21         0.20511
      12 -> 22        -0.34649
      12 -> 23         0.10541

 Excited state symmetry could not be determined.
 Excited State  18:      Singlet-?Sym    9.3976 eV  131.93 nm  f=0.0170  <S**2>=0.000
       7 -> 13         0.29803
       8 -> 13         0.61331

 Excited state symmetry could not be determined.
 Excited State  19:      Singlet-?Sym    9.4997 eV  130.51 nm  f=0.1067  <S**2>=0.000
      10 -> 14         0.20874
      11 -> 16        -0.10792
      11 -> 17        -0.19397
      12 -> 20         0.18553
      12 -> 23         0.36970
      12 -> 24        -0.41839

 Excited state symmetry could not be determined.
 Excited State  20:      Singlet-?Sym    9.5604 eV  129.69 nm  f=0.0019  <S**2>=0.000
      10 -> 14        -0.55285
      10 -> 17        -0.13278
      10 -> 18         0.10899
      11 -> 16        -0.14922
      12 -> 24        -0.32859

 Optimization completed.
    -- Stationary point found.

                          Input orientation:
 ---------------------------------------------------------------------
 Center     Atomic      Atomic             Coordinates (Angstroms)
 Number     Number       Type             X           Y           Z
 ---------------------------------------------------------------------
      1          6           0       -0.182326    0.442825    0.281117
      2          7           0        1.123237   -0.096643    0.119718
      3          8           0       -0.875166   -0.184475   -0.624774
      4          1           0        1.270001   -1.048334    0.446080
      5          1           0        1.642799    0.112603   -0.736496
      6          1           0       -0.298776    1.503110    0.514572
 ---------------------------------------------------------------------

 Alpha  occ. eigenvalues --  -19.24283 -14.39928 -10.40447  -1.12509  -0.95149
 Alpha  occ. eigenvalues --   -0.71227  -0.59143  -0.56555  -0.52673  -0.43722
 Alpha  occ. eigenvalues --   -0.38074  -0.29947
 Alpha virt. eigenvalues --   -0.04718   0.01783   0.03321   0.04471   0.06179
 Alpha virt. eigenvalues --    0.09452   0.10426   0.13269   0.13805   0.14228
 Alpha virt. eigenvalues --    0.16279   0.16594   0.19765   0.20926   0.24104

 Mulliken atomic charges:
              1
     1  C    0.849325
     2  N   -0.064094
     3  O   -0.508728
     4  H   -0.027233
     5  H   -0.021361
     6  H   -0.227909
 Sum of Mulliken atomic charges =   0.00000

 Dipole moment (field-independent basis, Debye):
    X=              1.8507    Y=              1.0723    Z=              1.1076  Tot=              2.4087
 Quadrupole moment (field-independent basis, Debye-Ang):
   XX=            -20.9697   YY=            -15.2895   ZZ=            -18.4894
   XY=             -2.4482   XZ=             -4.3504   YZ=             -1.0352

 Normal termination of Gaussian 09 at Mon Oct 28 17:14:03 2019.
