 Gaussian 09, Revision A.01,
 Gaussian 09:  EM64L-G09RevA.01  8-May-2009

 ----------------------------------------------------------------------
 # cam-b3lyp/aug-cc-pvdz opt(maxCycle=100) nosymm td(root=2,nstates=20)
  SCRF=PCM int(grid=ultrafine)
 ----------------------------------------------------------------------

 -----
 Title
 -----
 Symbolic Z-matrix:
 Charge =  0 Multiplicity = 1

 SCF Done:  E(RCAM-B3LYP) =  -169.791392855     A.U. after   14 cycles
 SCF Done:  E(RCAM-B3LYP) =  -169.792771339     A.U. after   13 cycles
 SCF Done:  E(RCAM-B3LYP) =  -169.790414094     A.U. after   13 cycles
 SCF Done:  E(RCAM-B3LYP) =  -169.781583599     A.U. after   14 cycles
 SCF Done:  E(RCAM-B3LYP) =  -169.788351941     A.U. after   13 cycles
 SCF Done:  E(RCAM-B3LYP) =  -169.791251213     A.U. after   13 cycles
 SCF Done:  E(RCAM-B3LYP) =  -169.788280538     A.U. after   12 cycles
 SCF Done:  E(RCAM-B3LYP) =  -169.788289005     A.U. after   11 cycles
 SCF Done:  E(RCAM-B3LYP) =  -169.788014671     A.U. after   11 cycles
 SCF Done:  E(RCAM-B3LYP) =  -169.787969960     A.U. after   10 cycles

 Excitation energies and oscillator strengths:

 Excited state symmetry could not be determined.
 Excited State   1:      Singlet-?Sym    4.0581 eV  305.52 nm  f=0.0007  <S**2>=0.000
      11 -> 13         0.66708
      12 -> 13        -0.21518

 Excited state symmetry could not be determined.
 Excited State   2:      Singlet-?Sym    3.0653 eV  404.47 nm  f=0.0018  <S**2>=0.000
      11 -> 13         0.21309
      12 -> 13         0.66938
 This state for optimization and/or second-order correction.
 Copying the excited state density for this state as the 1-particle RhoCI density.

 Excited state symmetry could not be determined.
 Excited State   3:      Singlet-?Sym    6.2616 eV  198.01 nm  f=0.0173  <S**2>=0.000
      12 -> 14         0.65298
      12 -> 18         0.10662
      12 -> 20        -0.15020

 Excited state symmetry could not be determined.
 Excited State   4:      Singlet-?Sym    7.0964 eV  174.71 nm  f=0.0939  <S**2>=0.000
      11 -> 14        -0.19022
      12 -> 14        -0.10942
      12 -> 15         0.61993
      12 -> 16         0.13999
      12 -> 22        -0.12826

 Excited state symmetry could not be determined.
 Excited State   5:      Singlet-?Sym    7.3174 eV  169.44 nm  f=0.0171  <S**2>=0.000
      12 -> 15        -0.11505
      12 -> 16         0.65169
      12 -> 23        -0.13932

 Excited state symmetry could not be determined.
 Excited State   6:      Singlet-?Sym    7.4877 eV  165.58 nm  f=0.1288  <S**2>=0.000
       9 -> 13        -0.17045
      10 -> 13         0.54209
      11 -> 14        -0.29502
      11 -> 17         0.12395
      12 -> 17         0.20245

 Excited state symmetry could not be determined.
 Excited State   7:      Singlet-?Sym    7.6004 eV  163.13 nm  f=0.0920  <S**2>=0.000
       9 -> 13        -0.10515
      10 -> 13         0.29675
      11 -> 14         0.17298
      11 -> 17        -0.11802
      12 -> 17        -0.55972

 Excited state symmetry could not be determined.
 Excited State   8:      Singlet-?Sym    7.9581 eV  155.80 nm  f=0.1946  <S**2>=0.000
       9 -> 13         0.12819
      10 -> 13        -0.13616
      11 -> 14        -0.48275
      11 -> 15         0.15661
      11 -> 20         0.10743
      12 -> 15        -0.21286
      12 -> 17        -0.32500
      12 -> 18         0.10471

 Excited state symmetry could not be determined.
 Excited State   9:      Singlet-?Sym    8.4307 eV  147.06 nm  f=0.0043  <S**2>=0.000
       9 -> 13         0.33214
      11 -> 14        -0.12832
      11 -> 15        -0.39211
      11 -> 16         0.15485
      11 -> 18        -0.10141
      12 -> 18        -0.36493

 Excited state symmetry could not be determined.
 Excited State  10:      Singlet-?Sym    8.5788 eV  144.52 nm  f=0.0178  <S**2>=0.000
       9 -> 13         0.23047
      11 -> 15        -0.24988
      11 -> 16        -0.37656
      11 -> 17         0.19248
      11 -> 19        -0.13486
      12 -> 18         0.32566
      12 -> 19        -0.21830

 Excited state symmetry could not be determined.
 Excited State  11:      Singlet-?Sym    8.6743 eV  142.93 nm  f=0.1307  <S**2>=0.000
       9 -> 13        -0.43112
      10 -> 13        -0.18491
      11 -> 14        -0.19514
      11 -> 15        -0.18345
      11 -> 16        -0.19364
      11 -> 17        -0.24087
      12 -> 19        -0.25707

 Excited state symmetry could not be determined.
 Excited State  12:      Singlet-?Sym    8.8040 eV  140.83 nm  f=0.0117  <S**2>=0.000
       9 -> 13         0.26511
      10 -> 13         0.14692
      11 -> 15         0.35397
      11 -> 16        -0.18785
      11 -> 17        -0.35443
      12 -> 18        -0.10059
      12 -> 19        -0.27422

 Excited state symmetry could not be determined.
 Excited State  13:      Singlet-?Sym    8.8545 eV  140.02 nm  f=0.0279  <S**2>=0.000
      11 -> 15        -0.15908
      11 -> 16         0.22972
      11 -> 17        -0.39645
      12 -> 14        -0.15455
      12 -> 17         0.11597
      12 -> 18         0.39740
      12 -> 20        -0.17380

 Excited state symmetry could not be determined.
 Excited State  14:      Singlet-?Sym    9.1001 eV  136.24 nm  f=0.0116  <S**2>=0.000
      11 -> 16        -0.37442
      11 -> 17        -0.19383
      12 -> 18        -0.11271
      12 -> 19         0.51214

 Excited state symmetry could not be determined.
 Excited State  15:      Singlet-?Sym    9.2330 eV  134.28 nm  f=0.0486  <S**2>=0.000
      11 -> 17         0.13519
      12 -> 14        -0.11717
      12 -> 18        -0.14611
      12 -> 20        -0.61911
      12 -> 21         0.11431

 Excited state symmetry could not be determined.
 Excited State  16:      Singlet-?Sym    9.5952 eV  129.21 nm  f=0.0114  <S**2>=0.000
       7 -> 13         0.24033
       8 -> 13         0.62469
      12 -> 21        -0.14778

 Excited state symmetry could not be determined.
 Excited State  17:      Singlet-?Sym    9.7191 eV  127.57 nm  f=0.0307  <S**2>=0.000
       8 -> 13         0.10364
      10 -> 14        -0.11086
      12 -> 15         0.10500
      12 -> 21         0.43851
      12 -> 22         0.44857

 Excited state symmetry could not be determined.
 Excited State  18:      Singlet-?Sym    9.7858 eV  126.70 nm  f=0.0302  <S**2>=0.000
      10 -> 14        -0.29160
      10 -> 17         0.10978
      11 -> 18         0.10495
      11 -> 19         0.10749
      12 -> 21         0.36664
      12 -> 22        -0.39879
      12 -> 25        -0.12636

 Excited state symmetry could not be determined.
 Excited State  19:      Singlet-?Sym    9.8695 eV  125.62 nm  f=0.0166  <S**2>=0.000
       8 -> 13         0.11503
      10 -> 14         0.49374
      10 -> 15        -0.13446
      10 -> 17        -0.13375
      10 -> 20        -0.11288
      11 -> 18        -0.19818
      12 -> 21         0.29990
      12 -> 22        -0.15945

 Excited state symmetry could not be determined.
 Excited State  20:      Singlet-?Sym    9.9888 eV  124.12 nm  f=0.0235  <S**2>=0.000
      10 -> 14         0.21972
      11 -> 18         0.59336
      11 -> 22         0.13686

 Optimization completed.
    -- Stationary point found.

                          Input orientation:
 ---------------------------------------------------------------------
 Center     Atomic      Atomic             Coordinates (Angstroms)
 Number     Number       Type             X           Y           Z
 ---------------------------------------------------------------------
      1          6           0       -0.239542    0.190148    0.131589
      2          7           0        1.058802   -0.329763   -0.106347
      3          8           0       -1.292056    0.128222   -0.589641
      4          1           0        1.499638   -0.778042    0.692800
      5          1           0        1.723475    0.264394   -0.609908
      6          1           0       -0.070546    1.254127    0.481724
 ---------------------------------------------------------------------

 Alpha  occ. eigenvalues --  -19.25749 -14.41778 -10.40785  -1.13183  -0.98538
 Alpha  occ. eigenvalues --   -0.69428  -0.59433  -0.57385  -0.53905  -0.45024
 Alpha  occ. eigenvalues --   -0.37122  -0.32515
 Alpha virt. eigenvalues --   -0.04176   0.01637   0.03768   0.04423   0.06074
 Alpha virt. eigenvalues --    0.09126   0.10246   0.12229   0.13751   0.14420
 Alpha virt. eigenvalues --    0.16980   0.17774   0.18812   0.21208   0.23395

 Mulliken atomic charges:
              1
     1  C    0.817425
     2  N   -0.123882
     3  O   -0.458165
     4  H    0.002169
     5  H   -0.005466
     6  H   -0.232081
 Sum of Mulliken atomic charges =   0.00000

 Dipole moment (field-independent basis, Debye):
    X=              3.9594    Y=              1.1459    Z=              2.2975  Tot=              4.7189
 Quadrupole moment (field-independent basis, Debye-Ang):
   XX=            -18.5649   YY=            -18.4864   ZZ=            -18.5790
   XY=              1.0111   XZ=             -1.3452   YZ=             -2.3340

 Normal termination of Gaussian 09 at Mon Oct 28 15:21:17 2019.
