 Gaussian 09, Revision A.01,
 Gaussian 09:  EM64L-G09RevA.01  8-May-2009

 ----------------------------------------------------------------------
 # cam-b3lyp/aug-cc-pvdz td(root=1,nstates=20) SCRF=PCM int(grid=ultraf
 ine)
 ----------------------------------------------------------------------

 -----
 Title
 -----
 Symbolic Z-matrix:
 Charge =  0 Multiplicity = 1

                         Standard orientation:
 ---------------------------------------------------------------------
 Center     Atomic      Atomic             Coordinates (Angstroms)
 Number     Number       Type             X           Y           Z
 ---------------------------------------------------------------------
      1          6           0        0.156345    0.330266   -0.145577
      2          7           0       -1.147871   -0.206585    0.007489
      3          8           0        1.295314   -0.220903    0.029794
      4          1           0       -1.806018    0.036366   -0.728544
      5          1           0       -1.584467   -0.137837    0.931093
      6          1           0        0.124999    1.333187    0.380135
 ---------------------------------------------------------------------

 SCF Done:  E(RCAM-B3LYP) =  -169.787977562     A.U. after   13 cycles

 Excitation energies and oscillator strengths:

 Excited State   1:      Singlet-A      3.0796 eV  402.60 nm  f=0.0013  <S**2>=0.000
      11 -> 13         0.21078
      12 -> 13         0.67001
 This state for optimization and/or second-order correction.
 Copying the excited state density for this state as the 1-particle RhoCI density.

 Excited State   2:      Singlet-A      4.0621 eV  305.22 nm  f=0.0005  <S**2>=0.000
      11 -> 13         0.66768
      12 -> 13        -0.21299

 Excited State   3:      Singlet-A      6.2909 eV  197.08 nm  f=0.0119  <S**2>=0.000
      12 -> 14         0.65595
      12 -> 18         0.10218
      12 -> 20        -0.15230

 Excited State   4:      Singlet-A      7.1483 eV  173.45 nm  f=0.0637  <S**2>=0.000
      11 -> 14        -0.20260
      12 -> 14        -0.10110
      12 -> 15         0.61369
      12 -> 16         0.17233
      12 -> 22        -0.12146

 Excited State   5:      Singlet-A      7.3311 eV  169.12 nm  f=0.0121  <S**2>=0.000
      12 -> 15        -0.14278
      12 -> 16         0.64646
      12 -> 23        -0.13439

 Excited State   6:      Singlet-A      7.5775 eV  163.62 nm  f=0.0699  <S**2>=0.000
       9 -> 13        -0.17106
      10 -> 13         0.47359
      11 -> 14        -0.36428
      11 -> 17         0.12596
      12 -> 15        -0.12631
      12 -> 17         0.22233

 Excited State   7:      Singlet-A      7.6459 eV  162.16 nm  f=0.0666  <S**2>=0.000
       9 -> 13         0.12839
      10 -> 13        -0.33444
      12 -> 17         0.56275

 Excited State   8:      Singlet-A      8.0396 eV  154.22 nm  f=0.1563  <S**2>=0.000
       9 -> 13        -0.21906
      10 -> 13         0.20240
      11 -> 14         0.44059
      11 -> 15        -0.16537
      12 -> 15         0.19256
      12 -> 17         0.31324
      12 -> 18        -0.11481

 Excited State   9:      Singlet-A      8.4440 eV  146.83 nm  f=0.0026  <S**2>=0.000
       9 -> 13        -0.29536
      11 -> 14         0.12801
      11 -> 15         0.40437
      11 -> 16        -0.15977
      11 -> 17         0.10654
      11 -> 18         0.10173
      12 -> 18         0.37755

 Excited State  10:      Singlet-A      8.5988 eV  144.19 nm  f=0.0092  <S**2>=0.000
       9 -> 13        -0.15787
      11 -> 15         0.28943
      11 -> 16         0.39858
      11 -> 17        -0.16098
      11 -> 19         0.14143
      12 -> 18        -0.29659
      12 -> 19         0.25795

 Excited State  11:      Singlet-A      8.7438 eV  141.80 nm  f=0.1109  <S**2>=0.000
       9 -> 13         0.35677
      10 -> 13         0.18264
      11 -> 14         0.20971
      11 -> 16         0.18665
      11 -> 17         0.36392
      12 -> 18         0.11933
      12 -> 19         0.26342

 Excited State  12:      Singlet-A      8.8310 eV  140.40 nm  f=0.0413  <S**2>=0.000
       9 -> 13         0.37443
      10 -> 13         0.21846
      11 -> 15         0.35602
      11 -> 16        -0.13851
      11 -> 17        -0.27172
      12 -> 19        -0.22282

 Excited State  13:      Singlet-A      8.8786 eV  139.64 nm  f=0.0194  <S**2>=0.000
      11 -> 15        -0.16498
      11 -> 16         0.24429
      11 -> 17        -0.37449
      12 -> 14        -0.15383
      12 -> 18         0.40631
      12 -> 20        -0.19147

 Excited State  14:      Singlet-A      9.1124 eV  136.06 nm  f=0.0078  <S**2>=0.000
      11 -> 16        -0.36890
      11 -> 17        -0.19803
      12 -> 18        -0.10437
      12 -> 19         0.51574

 Excited State  15:      Singlet-A      9.2621 eV  133.86 nm  f=0.0397  <S**2>=0.000
      11 -> 17        -0.15257
      12 -> 14         0.11794
      12 -> 18         0.15248
      12 -> 20         0.61962

 Excited State  16:      Singlet-A      9.6141 eV  128.96 nm  f=0.0092  <S**2>=0.000
       7 -> 13         0.24359
       8 -> 13         0.62491
      12 -> 21         0.14963

 Excited State  17:      Singlet-A      9.7600 eV  127.03 nm  f=0.0260  <S**2>=0.000
       8 -> 13        -0.10021
      12 -> 21         0.47386
      12 -> 22         0.42452

 Excited State  18:      Singlet-A      9.8193 eV  126.27 nm  f=0.0189  <S**2>=0.000
      10 -> 14        -0.24832
      11 -> 19        -0.11635
      12 -> 21        -0.37175
      12 -> 22         0.42629
      12 -> 25         0.12488

 Excited State  19:      Singlet-A      9.8923 eV  125.33 nm  f=0.0155  <S**2>=0.000
      10 -> 14         0.52113
      10 -> 15        -0.14123
      10 -> 17        -0.13410
      10 -> 20        -0.11541
      11 -> 18         0.22321
      12 -> 21        -0.24799
      12 -> 22         0.14873

 Excited State  20:      Singlet-A     10.0040 eV  123.93 nm  f=0.0176  <S**2>=0.000
      10 -> 14        -0.23855
      11 -> 18         0.58672
      11 -> 22         0.13578

 The electronic state is 1-A.
 Alpha  occ. eigenvalues --  -19.25747 -14.41775 -10.40782  -1.13180  -0.98534
 Alpha  occ. eigenvalues --   -0.69425  -0.59429  -0.57382  -0.53903  -0.45022
 Alpha  occ. eigenvalues --   -0.37119  -0.32512
 Alpha virt. eigenvalues --   -0.04174   0.01638   0.03769   0.04424   0.06075
 Alpha virt. eigenvalues --    0.09128   0.10247   0.12231   0.13752   0.14421
 Alpha virt. eigenvalues --    0.16983   0.17776   0.18815   0.21209   0.23396

 Mulliken atomic charges:
              1
     1  C    0.817290
     2  N   -0.124020
     3  O   -0.458181
     4  H    0.002110
     5  H   -0.005331
     6  H   -0.231867
 Sum of Mulliken atomic charges =   0.00000

 Dipole moment (field-independent basis, Debye):
    X=             -4.0377    Y=              2.4309    Z=              0.2455  Tot=              4.7194
 Quadrupole moment (field-independent basis, Debye-Ang):
   XX=            -18.5611   YY=            -20.3675   ZZ=            -15.5746
   XY=             -0.3841   XZ=             -0.3671   YZ=             -0.2566

 Normal termination of Gaussian 09 at Mon Oct 28 20:00:16 2019.
