 Gaussian 09, Revision A.01,
 Gaussian 09:  EM64L-G09RevA.01  8-May-2009

 ----------------------------------------------------------------------
 # cam-b3lyp/aug-cc-pvdz force nosymm td(root=6,nstates=20,NonEqSolv) S
 CRF=PCM int=(grid=ultrafine)
 ----------------------------------------------------------------------

 -----
 Title
 -----
 Symbolic Z-matrix:
 Charge =  0 Multiplicity = 1

                          Input orientation:
 ---------------------------------------------------------------------
 Center     Atomic      Atomic             Coordinates (Angstroms)
 Number     Number       Type             X           Y           Z
 ---------------------------------------------------------------------
      1          6           0       -0.148406    0.389411   -0.000008
      2          7           0        1.075890   -0.160923    0.000060
      3          8           0       -1.199011   -0.244372   -0.000076
      4          1           0        1.182007   -1.166648    0.000092
      5          1           0        1.902982    0.416959    0.000154
      6          1           0       -0.133692    1.494659   -0.000005
 ---------------------------------------------------------------------

 SCF Done:  E(RCAM-B3LYP) =  -169.864201704     A.U. after   11 cycles

 Excitation energies and oscillator strengths:

 Excited state symmetry could not be determined.
 Excited State   1:      Singlet-?Sym    5.7717 eV  214.81 nm  f=0.0007  <S**2>=0.000
      12 -> 16         0.67171
      12 -> 17        -0.19843

 Excited state symmetry could not be determined.
 Excited State   2:      Singlet-?Sym    7.0116 eV  176.83 nm  f=0.0026  <S**2>=0.000
      11 -> 16         0.18758
      12 -> 13         0.59352
      12 -> 14        -0.10086
      12 -> 15         0.24183
      12 -> 18        -0.11513
      12 -> 20        -0.11358

 Excited state symmetry could not be determined.
 Excited State   3:      Singlet-?Sym    7.0883 eV  174.91 nm  f=0.0116  <S**2>=0.000
      11 -> 13         0.66713
      11 -> 14         0.10264
      11 -> 19        -0.12844
      11 -> 20        -0.12916

 Excited state symmetry could not be determined.
 Excited State   4:      Singlet-?Sym    7.4425 eV  166.59 nm  f=0.2048  <S**2>=0.000
      11 -> 16         0.51200
      11 -> 17        -0.21242
      12 -> 14         0.34385
      12 -> 15        -0.16080
      12 -> 18         0.11090
      12 -> 19        -0.12879

 Excited state symmetry could not be determined.
 Excited State   5:      Singlet-?Sym    7.7327 eV  160.34 nm  f=0.1372  <S**2>=0.000
      11 -> 16        -0.22740
      11 -> 17         0.11607
      12 -> 14         0.54177
      12 -> 15         0.29643
      12 -> 18        -0.14000
      12 -> 19        -0.10817

 Excited state symmetry could not be determined.
 Excited State   6:      Singlet-?Sym    7.7938 eV  159.08 nm  f=0.0005  <S**2>=0.000
      11 -> 13        -0.10674
      11 -> 14         0.63771
      11 -> 15         0.19026
      11 -> 21        -0.15140
 This state for optimization and/or second-order correction.
 Copying the excited state density for this state as the 1-particle RhoCI density.

 Excited state symmetry could not be determined.
 Excited State   7:      Singlet-?Sym    8.0559 eV  153.90 nm  f=0.1350  <S**2>=0.000
      11 -> 16         0.22564
      11 -> 17        -0.12881
      12 -> 13        -0.34534
      12 -> 14        -0.16503
      12 -> 15         0.47688
      12 -> 18        -0.20966

 Excited state symmetry could not be determined.
 Excited State   8:      Singlet-?Sym    8.0613 eV  153.80 nm  f=0.0292  <S**2>=0.000
      11 -> 14        -0.18443
      11 -> 15         0.64143
      11 -> 18        -0.15756
      11 -> 23        -0.10720

 Excited state symmetry could not be determined.
 Excited State   9:      Singlet-?Sym    8.3955 eV  147.68 nm  f=0.0061  <S**2>=0.000
      12 -> 16         0.19345
      12 -> 17         0.67007

 Excited state symmetry could not be determined.
 Excited State  10:      Singlet-?Sym    8.6921 eV  142.64 nm  f=0.0072  <S**2>=0.000
      11 -> 16         0.27915
      11 -> 17         0.64073

 Excited state symmetry could not be determined.
 Excited State  11:      Singlet-?Sym    9.0454 eV  137.07 nm  f=0.0056  <S**2>=0.000
      12 -> 15         0.28947
      12 -> 18         0.61503
      12 -> 19         0.12816

 Excited state symmetry could not be determined.
 Excited State  12:      Singlet-?Sym    9.1250 eV  135.87 nm  f=0.0059  <S**2>=0.000
      11 -> 15         0.12828
      11 -> 18         0.65888
      11 -> 24         0.14537

 Excited state symmetry could not be determined.
 Excited State  13:      Singlet-?Sym    9.3287 eV  132.91 nm  f=0.0013  <S**2>=0.000
      12 -> 14         0.14605
      12 -> 18        -0.11226
      12 -> 19         0.64904
      12 -> 21        -0.10209

 Excited state symmetry could not be determined.
 Excited State  14:      Singlet-?Sym    9.3993 eV  131.91 nm  f=0.0076  <S**2>=0.000
      11 -> 13         0.11202
      11 -> 19         0.67208

 Excited state symmetry could not be determined.
 Excited State  15:      Singlet-?Sym    9.9859 eV  124.16 nm  f=0.0063  <S**2>=0.000
      12 -> 13         0.10037
      12 -> 14        -0.10506
      12 -> 20         0.57734
      12 -> 23         0.32655
      12 -> 24         0.11032

 Excited state symmetry could not be determined.
 Excited State  16:      Singlet-?Sym   10.1635 eV  121.99 nm  f=0.0008  <S**2>=0.000
       9 -> 16         0.64803
       9 -> 17        -0.18785
      11 -> 20         0.10783
      11 -> 23         0.11739

 Excited state symmetry could not be determined.
 Excited State  17:      Singlet-?Sym   10.2649 eV  120.78 nm  f=0.0045  <S**2>=0.000
       9 -> 16        -0.13162
      11 -> 13         0.14359
      11 -> 20         0.62855
      11 -> 21         0.16595
      11 -> 23         0.11720

 Excited state symmetry could not be determined.
 Excited State  18:      Singlet-?Sym   10.4947 eV  118.14 nm  f=0.0022  <S**2>=0.000
       9 -> 16        -0.10903
      11 -> 20        -0.12106
      11 -> 23         0.57657
      11 -> 24         0.23624
      11 -> 26        -0.12728
      12 -> 22         0.15726

 Excited state symmetry could not be determined.
 Excited State  19:      Singlet-?Sym   10.5406 eV  117.63 nm  f=0.0062  <S**2>=0.000
      11 -> 14        -0.12446
      11 -> 20         0.12566
      11 -> 21        -0.37497
      11 -> 23        -0.11865
      12 -> 22         0.52557
      12 -> 25        -0.11721

 Excited state symmetry could not be determined.
 Excited State  20:      Singlet-?Sym   10.5535 eV  117.48 nm  f=0.0253  <S**2>=0.000
      10 -> 16        -0.13150
      11 -> 22        -0.16959
      12 -> 14         0.10280
      12 -> 20        -0.21128
      12 -> 21         0.41498
      12 -> 23         0.39681
      12 -> 24         0.20550

 Alpha  occ. eigenvalues --  -19.20592 -14.43921 -10.37654  -1.13251  -1.00140
 Alpha  occ. eigenvalues --   -0.70900  -0.63283  -0.56221  -0.49948  -0.49027
 Alpha  occ. eigenvalues --   -0.35108  -0.34314
 Alpha virt. eigenvalues --    0.01671   0.03328   0.04398   0.04944   0.07805
 Alpha virt. eigenvalues --    0.08200   0.09546   0.12744   0.14289   0.14951
 Alpha virt. eigenvalues --    0.15949   0.18128   0.20969   0.21113   0.21475

 Mulliken atomic charges:
              1
     1  C    0.817577
     2  N    0.161620
     3  O   -0.554274
     4  H   -0.088860
     5  H   -0.043972
     6  H   -0.292090
 Sum of Mulliken atomic charges =   0.00000

 Dipole moment (field-independent basis, Debye):
    X=              5.1238    Y=              1.2632    Z=              0.0005  Tot=              5.2772
 Quadrupole moment (field-independent basis, Debye-Ang):
   XX=            -18.5724   YY=            -15.2274   ZZ=            -19.2154
   XY=             -1.5257   XZ=              0.0002   YZ=             -0.0001

 Normal termination of Gaussian 09 at Mon Oct 28 09:10:35 2019.
