 Gaussian 09, Revision A.01,
 Gaussian 09:  EM64L-G09RevA.01  8-May-2009

 ----------------------------------------------------------------------
 # pbepbe/Gen opt(verytight,maxcycles=500) Freq=(savenormalmodes,raman)
  Int(grid=ultrafine)
 ----------------------------------------------------------------------

 -----
 Title
 -----
 Symbolic Z-matrix:
 Charge =  0 Multiplicity = 1

 SCF Done:  E(RPBE-PBE) =  -169.729349861     A.U. after   14 cycles
 SCF Done:  E(RPBE-PBE) =  -169.729349880     A.U. after    7 cycles
 SCF Done:  E(RPBE-PBE) =  -169.729349871     A.U. after    7 cycles
 SCF Done:  E(RPBE-PBE) =  -169.729349890     A.U. after    7 cycles
 SCF Done:  E(RPBE-PBE) =  -169.729349890     A.U. after    5 cycles
 SCF Done:  E(RPBE-PBE) =  -169.729349890     A.U. after    5 cycles
 SCF Done:  E(RPBE-PBE) =  -169.729349890     A.U. after    5 cycles
 SCF Done:  E(RPBE-PBE) =  -169.729349890     A.U. after    5 cycles
 SCF Done:  E(RPBE-PBE) =  -169.729349890     A.U. after    6 cycles
 SCF Done:  E(RPBE-PBE) =  -169.729349890     A.U. after    5 cycles
 SCF Done:  E(RPBE-PBE) =  -169.729352298     A.U. after   10 cycles
 SCF Done:  E(RPBE-PBE) =  -169.729356587     A.U. after   11 cycles
 SCF Done:  E(RPBE-PBE) =  -169.729356017     A.U. after   12 cycles
 SCF Done:  E(RPBE-PBE) =  -169.729359085     A.U. after   11 cycles
 SCF Done:  E(RPBE-PBE) =  -169.729359123     A.U. after    8 cycles
 SCF Done:  E(RPBE-PBE) =  -169.729359128     A.U. after    7 cycles
 SCF Done:  E(RPBE-PBE) =  -169.729359134     A.U. after    6 cycles
 SCF Done:  E(RPBE-PBE) =  -169.729359135     A.U. after    6 cycles
 SCF Done:  E(RPBE-PBE) =  -169.729359135     A.U. after    5 cycles
 Optimization completed.
    -- Stationary point found.
 Normal termination of Gaussian 09 at Thu Oct 31 18:49:18 2019.

 -------------------------------------------------------------------
 #N Geom=AllCheck Guess=TCheck SCRF=Check GenChk RPBEPBE/ChkBas Freq
 -------------------------------------------------------------------

 Title
 -----
 Redundant internal coordinates taken from checkpoint file:
 freq.chk
 Charge =  0 Multiplicity = 1

                         Standard orientation:
 ---------------------------------------------------------------------
 Center     Atomic      Atomic             Coordinates (Angstroms)
 Number     Number       Type             X           Y           Z
 ---------------------------------------------------------------------
      1          6           0       -0.160692    0.392739    0.001494
      2          7           0        1.095650   -0.161408   -0.027139
      3          8           0       -1.212119   -0.247115    0.003840
      4          1           0        1.186947   -1.174909    0.056337
      5          1           0        1.927306    0.415168    0.093405
      6          1           0       -0.122697    1.510087    0.000544
 ---------------------------------------------------------------------

 SCF Done:  E(RPBE-PBE) =  -169.729359135     A.U. after    1 cycles

 The electronic state is 1-A.
 Alpha  occ. eigenvalues --  -18.74001 -14.03386 -10.01013  -0.94427  -0.83383
 Alpha  occ. eigenvalues --   -0.57102  -0.50742  -0.43052  -0.36311  -0.35905
 Alpha  occ. eigenvalues --   -0.24279  -0.21490
 Alpha virt. eigenvalues --   -0.02301   0.03956   0.07373   0.12614   0.17748
 Alpha virt. eigenvalues --    0.26201   0.27547   0.29694   0.41293   0.44950
 Alpha virt. eigenvalues --    0.46211   0.50677   0.56712   0.64663   0.68329

 Mulliken atomic charges:
              1
     1  C    0.066288
     2  N   -0.644909
     3  O   -0.311009
     4  H    0.369715
     5  H    0.364601
     6  H    0.155314
 Sum of Mulliken atomic charges =   0.00000

 Dipole moment (field-independent basis, Debye):
    X=              3.9179    Y=              0.8051    Z=              0.3323  Tot=              4.0136
 Quadrupole moment (field-independent basis, Debye-Ang):
   XX=            -17.7137   YY=            -15.2349   ZZ=            -19.1462
   XY=             -1.1034   XZ=              0.6222   YZ=             -0.0709

  Exact polarizability:  31.571   0.640  23.093  -0.022   0.062  12.170
 Approx polarizability:  62.956   5.318  35.966  -0.635   0.145  17.702

                     1                      2                      3
                     A                      A                      A
 Frequencies --   161.6299               539.5342               627.4800
 Red. masses --     1.2288                 2.3971                 1.2322
 Frc consts  --     0.0189                 0.4111                 0.2858
 IR Inten    --   259.2311                 8.7720                18.3119
 Raman Activ --     0.5038                 1.3409                 0.9949

                     4                      5                      6
                     A                      A                      A
 Frequencies --   977.4830              1017.5731              1236.3556
 Red. masses --     1.5418                 1.7143                 2.8215
 Frc consts  --     0.8680                 1.0458                 2.5411
 IR Inten    --     3.8515                 3.5255                85.0701
 Raman Activ --     1.7749                 7.0793                 4.7604

                     7                      8                      9
                     A                      A                      A
 Frequencies --  1369.2349              1572.4635              1759.6716
 Red. masses --     1.2031                 1.2532                 7.0629
 Frc consts  --     1.3289                 1.8258                12.8854
 IR Inten    --     4.5121                57.9179               401.1703
 Raman Activ --    10.1286                 4.7532                 9.1483

                    10                     11                     12
                     A                      A                      A
 Frequencies --  2891.9020              3477.2046              3619.8722
 Red. masses --     1.0867                 1.0454                 1.1054
 Frc consts  --     5.3547                 7.4470                 8.5342
 IR Inten    --   111.6468                27.7664                37.8488
 Raman Activ --   122.4658               142.4345                66.2159

 - Thermochemistry -
 -------------------
 Temperature   298.150 Kelvin.  Pressure   1.00000 Atm.
 Atom     1 has atomic number  6 and mass  12.00000

 Molecular mass:    45.02146 amu.
 Principal axes and moments of inertia in atomic units:
                           1         2         3
     Eigenvalues --    25.17760 162.98262 188.01354
           X            0.99981  -0.01870   0.00565
           Y            0.01873   0.99982  -0.00399
           Z           -0.00558   0.00409   0.99998
 This molecule is an asymmetric top.
 Rotational symmetry number  1.
 Rotational temperatures (Kelvin)      3.44011     0.53143     0.46068
 Rotational constants (GHZ):          71.68044    11.07321     9.59900
 Zero-point vibrational energy     115143.0 (Joules/Mol)
                                   27.51983 (Kcal/Mol)
 Warning -- explicit consideration of   2 degrees of freedom as
           vibrations may cause significant error
 Vibrational temperatures:    232.55   776.27   902.80  1406.38  1464.06
          (Kelvin)           1778.84  1970.02  2262.42  2531.77  4160.80
                             5002.92  5208.18

 Zero-point correction=                           0.043856 (Hartree/Particle)
 Thermal correction to Energy=                    0.047756
 Thermal correction to Enthalpy=                  0.048700
 Thermal correction to Gibbs Free Energy=         0.019066
 Sum of electronic and zero-point Energies=           -169.685503
 Sum of electronic and thermal Energies=              -169.681603
 Sum of electronic and thermal Enthalpies=            -169.680659
 Sum of electronic and thermal Free Energies=         -169.710293

                     E (Thermal)             CV                S
                      KCal/Mol        Cal/Mol-Kelvin    Cal/Mol-Kelvin
 Total                   29.968             11.136             62.371
 Electronic               0.000              0.000              0.000
 Translational            0.889              2.981             37.339
 Rotational               0.889              2.981             21.272
 Vibrational             28.190              5.175              3.760
 Vibration     1          0.622              1.889              2.531
 Vibration     2          0.895              1.163              0.566

 Optimization completed.
    -- Stationary point found.
 Normal termination of Gaussian 09 at Thu Oct 31 18:49:57 2019.
