 Gaussian 09, Revision A.01,
 Gaussian 09:  EM64L-G09RevA.01  8-May-2009

 -----------------------------------------------
 # pbepbe/Gen force nosymm td(root=2,nstates=10)
 -----------------------------------------------

 -----
 Title
 -----
 Symbolic Z-matrix:
 Charge =  0 Multiplicity = 1

                          Input orientation:
 ---------------------------------------------------------------------
 Center     Atomic      Atomic             Coordinates (Angstroms)
 Number     Number       Type             X           Y           Z
 ---------------------------------------------------------------------
      1          6           0       -0.160692    0.392739    0.001494
      2          7           0        1.095650   -0.161408   -0.027139
      3          8           0       -1.212119   -0.247115    0.003840
      4          1           0        1.186947   -1.174909    0.056337
      5          1           0        1.927306    0.415168    0.093405
      6          1           0       -0.122697    1.510087    0.000544
 ---------------------------------------------------------------------

 SCF Done:  E(RPBE-PBE) =  -169.729360861     A.U. after   13 cycles

 Excitation energies and oscillator strengths:

 Excited state symmetry could not be determined.
 Excited State   1:      Singlet-?Sym    5.4326 eV  228.22 nm  f=0.0008  <S**2>=0.000
      12 -> 13         0.70660

 Excited state symmetry could not be determined.
 Excited State   2:      Singlet-?Sym    6.9076 eV  179.49 nm  f=0.0004  <S**2>=0.000
      11 -> 13         0.35571
      12 -> 14         0.61000
 This state for optimization and/or second-order correction.
 Copying the excited state density for this state as the 1-particle RhoCI density.

 Excited state symmetry could not be determined.
 Excited State   3:      Singlet-?Sym    7.8848 eV  157.25 nm  f=0.0094  <S**2>=0.000
      11 -> 14         0.69729

 Excited state symmetry could not be determined.
 Excited State   4:      Singlet-?Sym    8.0054 eV  154.88 nm  f=0.0697  <S**2>=0.000
      12 -> 15         0.69615

 Excited state symmetry could not be determined.
 Excited State   5:      Singlet-?Sym    8.0912 eV  153.23 nm  f=0.3453  <S**2>=0.000
      11 -> 13         0.59055
      12 -> 14        -0.34901

 Excited state symmetry could not be determined.
 Excited State   6:      Singlet-?Sym    8.6730 eV  142.95 nm  f=0.0062  <S**2>=0.000
      11 -> 15         0.70384

 Excited state symmetry could not be determined.
 Excited State   7:      Singlet-?Sym    9.4966 eV  130.56 nm  f=0.0245  <S**2>=0.000
      12 -> 16         0.69504

 Excited state symmetry could not be determined.
 Excited State   8:      Singlet-?Sym    9.6884 eV  127.97 nm  f=0.0030  <S**2>=0.000
       9 -> 13         0.66907
      10 -> 13        -0.21340

 Excited state symmetry could not be determined.
 Excited State   9:      Singlet-?Sym   10.0945 eV  122.82 nm  f=0.0002  <S**2>=0.000
      11 -> 16         0.70483

 Excited state symmetry could not be determined.
 Excited State  10:      Singlet-?Sym   10.6599 eV  116.31 nm  f=0.0036  <S**2>=0.000
       9 -> 13         0.14895
      10 -> 13         0.46476
      12 -> 17         0.48108

 Alpha  occ. eigenvalues --  -18.74000 -14.03386 -10.01013  -0.94427  -0.83383
 Alpha  occ. eigenvalues --   -0.57102  -0.50743  -0.43052  -0.36311  -0.35906
 Alpha  occ. eigenvalues --   -0.24279  -0.21490
 Alpha virt. eigenvalues --   -0.02301   0.03956   0.07373   0.12614   0.17747
 Alpha virt. eigenvalues --    0.26199   0.27545   0.29694   0.41292   0.44950
 Alpha virt. eigenvalues --    0.46211   0.50677   0.56712   0.64663   0.68329

 Mulliken atomic charges:
              1
     1  C    0.066264
     2  N   -0.644896
     3  O   -0.311002
     4  H    0.369713
     5  H    0.364601
     6  H    0.155319
 Sum of Mulliken atomic charges =   0.00000

 Dipole moment (field-independent basis, Debye):
    X=              3.9179    Y=              0.8050    Z=              0.3322  Tot=              4.0135
 Quadrupole moment (field-independent basis, Debye-Ang):
   XX=            -17.7136   YY=            -15.2348   ZZ=            -19.1463
   XY=             -1.1034   XZ=              0.6222   YZ=             -0.0709

 Normal termination of Gaussian 09 at Thu Oct 31 19:26:40 2019.
