 Gaussian 09, Revision A.01,
 Gaussian 09:  EM64L-G09RevA.01  8-May-2009

 -------------------------------------
 # B3LYP/6-31G(d) Freq=savenormalmodes
 -------------------------------------

 -----
 Title
 -----
 Symbolic Z-matrix:
 Charge =  0 Multiplicity = 1

                         Standard orientation:
 ---------------------------------------------------------------------
 Center     Atomic      Atomic             Coordinates (Angstroms)
 Number     Number       Type             X           Y           Z
 ---------------------------------------------------------------------
      1          6           0       -3.076112    0.167551    0.000027
      2          6           0       -1.868124   -0.419457   -0.000005
      3          6           0       -0.607363    0.296955   -0.000028
      4          6           0        0.607363   -0.296956   -0.000028
      5          6           0        1.868124    0.419457   -0.000005
      6          6           0        3.076112   -0.167551    0.000027
      7          1           0       -0.663363    1.386571   -0.000036
      8          1           0        0.663363   -1.386571   -0.000036
      9          1           0        1.805510    1.508224   -0.000010
     10          1           0        3.182321   -1.250111    0.000025
     11          1           0        3.993633    0.412645    0.000053
     12          1           0       -3.993633   -0.412644    0.000053
     13          1           0       -3.182320    1.250111    0.000025
     14          1           0       -1.805511   -1.508224   -0.000010
 ---------------------------------------------------------------------

 SCF Done:  E(RB3LYP) =  -233.398566429     A.U. after   13 cycles

 The electronic state is 1-A.
 Alpha  occ. eigenvalues --  -10.19336 -10.19332 -10.19277 -10.19205 -10.18406
 Alpha  occ. eigenvalues --  -10.18406  -0.81677  -0.77585  -0.71720  -0.61903
 Alpha  occ. eigenvalues --   -0.55721  -0.55312  -0.48266  -0.45758  -0.42844
 Alpha  occ. eigenvalues --   -0.40308  -0.37956  -0.36117  -0.34447  -0.33754
 Alpha  occ. eigenvalues --   -0.28592  -0.20925
 Alpha virt. eigenvalues --   -0.04434   0.04759   0.10067   0.10230   0.12384
 Alpha virt. eigenvalues --    0.13065   0.14325   0.16379   0.18672   0.18735
 Alpha virt. eigenvalues --    0.21033   0.31114   0.33531   0.35104   0.37419

 Mulliken atomic charges:
              1
     1  C   -0.355241
     2  C   -0.059952
     3  C   -0.121750
     4  C   -0.121750
     5  C   -0.059953
     6  C   -0.355241
     7  H    0.124175
     8  H    0.124175
     9  H    0.126793
    10  H    0.141239
    11  H    0.144737
    12  H    0.144737
    13  H    0.141239
    14  H    0.126793
 Sum of Mulliken atomic charges =   0.00000

 Dipole moment (field-independent basis, Debye):
    X=              0.0000    Y=              0.0000    Z=              0.0000  Tot=              0.0000
 Quadrupole moment (field-independent basis, Debye-Ang):
   XX=            -33.7392   YY=            -33.1461   ZZ=            -40.8286
   XY=              0.0322   XZ=              0.0000   YZ=              0.0000

  Exact polarizability: 154.783 -12.061  57.214   0.000   0.000  22.373
 Approx polarizability: 257.023 -35.030  84.842   0.000   0.000  32.122

                     1                      2                      3
                     A                      A                      A
 Frequencies --   102.8043               147.8937               229.8692
 Red. masses --     3.3631                 2.9611                 2.8411
 Frc consts  --     0.0209                 0.0382                 0.0885
 IR Inten    --     0.2570                 2.0075                 0.0000

                     4                      5                      6
                     A                      A                      A
 Frequencies --   257.9129               350.1354               445.4500
 Red. masses --     1.6285                 2.4944                 4.2831
 Frc consts  --     0.0638                 0.1802                 0.5007
 IR Inten    --     1.2432                 0.0000                 0.0000

                     7                      8                      9
                     A                      A                      A
 Frequencies --   543.4677               620.0156               711.5405
 Red. masses --     2.5026                 1.1690                 1.6208
 Frc consts  --     0.4355                 0.2648                 0.4835
 IR Inten    --     5.6743                 0.0000                 8.0263

                    10                     11                     12
                     A                      A                      A
 Frequencies --   899.7897               920.2693               924.6113
 Red. masses --     1.7535                 1.3475                 1.5265
 Frc consts  --     0.8364                 0.6724                 0.7689
 IR Inten    --     0.0000                76.1055                 0.0000

                    13                     14                     15
                     A                      A                      A
 Frequencies --   954.1296               976.7560               987.1986
 Red. masses --     1.4435                 1.1673                 1.5637
 Frc consts  --     0.7743                 0.6561                 0.8979
 IR Inten    --     0.0000                 3.6071                 2.8121

                    16                     17                     18
                     A                      A                      A
 Frequencies --  1032.1398              1065.9753              1170.3502
 Red. masses --     1.1079                 1.0907                 2.2442
 Frc consts  --     0.6954                 0.7302                 1.8111
 IR Inten    --     0.0000                50.2635                 5.7241

                    19                     20                     21
                     A                      A                      A
 Frequencies --  1232.3674              1296.9422              1328.9067
 Red. masses --     1.9011                 1.3039                 1.5516
 Frc consts  --     1.7011                 1.2923                 1.6144
 IR Inten    --     0.0000                 2.7265                 0.0000

                    22                     23                     24
                     A                      A                      A
 Frequencies --  1340.5029              1344.8198              1455.0027
 Red. masses --     1.2912                 1.3142                 1.2906
 Frc consts  --     1.3670                 1.4003                 1.6098
 IR Inten    --     3.4950                 0.0000                 0.0000

                    25                     26                     27
                     A                      A                      A
 Frequencies --  1487.9879              1657.5463              1709.0116
 Red. masses --     1.2427                 3.7489                 4.1550
 Frc consts  --     1.6211                 6.0686                 7.1501
 IR Inten    --     2.0876                 0.0000                16.4425

                    28                     29                     30
                     A                      A                      A
 Frequencies --  1712.1816              3143.9497              3144.5229
 Red. masses --     4.6181                 1.0848                 1.0898
 Frc consts  --     7.9766                 6.3174                 6.3493
 IR Inten    --     0.0000                 0.1097                 0.0000

                    31                     32                     33
                     A                      A                      A
 Frequencies --  3152.4677              3157.9728              3165.5339
 Red. masses --     1.0848                 1.0844                 1.0654
 Frc consts  --     6.3519                 6.3719                 6.2900
 IR Inten    --     0.0000                63.3029                12.0445

                    34                     35                     36
                     A                      A                      A
 Frequencies --  3165.7515              3248.9822              3249.0010
 Red. masses --     1.0660                 1.1156                 1.1157
 Frc consts  --     6.2946                 6.9386                 6.9387
 IR Inten    --     0.0002                 0.3000                31.3532

 - Thermochemistry -
 -------------------
 Temperature   298.150 Kelvin.  Pressure   1.00000 Atm.
 Atom     1 has atomic number  6 and mass  12.00000

 Molecular mass:    80.06260 amu.
 Principal axes and moments of inertia in atomic units:
                           1         2         3
     Eigenvalues --    67.719261356.044801423.76406
           X            1.00000  -0.00290   0.00000
           Y            0.00290   1.00000   0.00000
           Z            0.00000   0.00000   1.00000
 This molecule is an asymmetric top.
 Rotational symmetry number  1.
 Rotational temperatures (Kelvin)      1.27901     0.06387     0.06083
 Rotational constants (GHZ):          26.65034     1.33089     1.26758
 Zero-point vibrational energy     313025.4 (Joules/Mol)
                                   74.81487 (Kcal/Mol)
 Warning -- explicit consideration of   8 degrees of freedom as
           vibrations may cause significant error
 Vibrational temperatures:    147.91   212.79   330.73   371.08   503.77
          (Kelvin)            640.90   781.93   892.06  1023.75  1294.60
                             1324.06  1330.31  1372.78  1405.33  1420.36
                             1485.02  1533.70  1683.87  1773.10  1866.01
                             1912.00  1928.68  1934.89  2093.42  2140.88
                             2384.84  2458.88  2463.44  4523.44  4524.26
                             4535.69  4543.61  4554.49  4554.80  4674.55
                             4674.58

 Zero-point correction=                           0.119225 (Hartree/Particle)
 Thermal correction to Energy=                    0.125933
 Thermal correction to Enthalpy=                  0.126878
 Thermal correction to Gibbs Free Energy=         0.089147
 Sum of electronic and zero-point Energies=           -233.279341
 Sum of electronic and thermal Energies=              -233.272633
 Sum of electronic and thermal Enthalpies=            -233.271689
 Sum of electronic and thermal Free Energies=         -233.309419

                     E (Thermal)             CV                S
                      KCal/Mol        Cal/Mol-Kelvin    Cal/Mol-Kelvin
 Total                   79.024             23.805             79.410
 Electronic               0.000              0.000              0.000
 Translational            0.889              2.981             39.055
 Rotational               0.889              2.981             26.372
 Vibrational             77.247             17.843             13.983
 Vibration     1          0.605              1.947              3.400
 Vibration     2          0.617              1.905              2.699
 Vibration     3          0.652              1.795              1.880
 Vibration     4          0.667              1.749              1.676
 Vibration     5          0.727              1.575              1.166
 Vibration     6          0.805              1.371              0.810
 Vibration     7          0.899              1.154              0.558
 Vibration     8          0.980              0.990              0.416

 Optimization completed.
    -- Stationary point found.
 Normal termination of Gaussian 09 at Thu Oct  3 21:13:51 2019.
