 Gaussian 09, Revision A.01,
 Gaussian 09:  EM64L-G09RevA.01  8-May-2009

 ---------------------------------
 # B3LYP/6-31G(d) TD(root=1) force
 ---------------------------------

 -----
 Title
 -----
 Symbolic Z-matrix:
 Charge =  0 Multiplicity = 1

                         Standard orientation:
 ---------------------------------------------------------------------
 Center     Atomic      Atomic             Coordinates (Angstroms)
 Number     Number       Type             X           Y           Z
 ---------------------------------------------------------------------
      1          6           0       -3.076112    0.167551    0.000027
      2          6           0       -1.868124   -0.419457   -0.000005
      3          6           0       -0.607363    0.296955   -0.000028
      4          6           0        0.607363   -0.296956   -0.000028
      5          6           0        1.868124    0.419457   -0.000005
      6          6           0        3.076112   -0.167551    0.000027
      7          1           0       -0.663363    1.386571   -0.000036
      8          1           0        0.663363   -1.386571   -0.000036
      9          1           0        1.805510    1.508224   -0.000010
     10          1           0        3.182321   -1.250111    0.000025
     11          1           0        3.993633    0.412645    0.000053
     12          1           0       -3.993633   -0.412644    0.000053
     13          1           0       -3.182320    1.250111    0.000025
     14          1           0       -1.805511   -1.508224   -0.000010
 ---------------------------------------------------------------------

 SCF Done:  E(RB3LYP) =  -233.398566429     A.U. after   13 cycles

 Excitation energies and oscillator strengths:

 Excited State   1:      Singlet-A      4.8706 eV  254.56 nm  f=1.0431  <S**2>=0.000
      22 -> 23         0.71217
      22 <- 23        -0.12131
 This state for optimization and/or second-order correction.
 Copying the excited state density for this state as the 1-particle RhoCI density.

 Excited State   2:      Singlet-A      5.8668 eV  211.33 nm  f=0.0000  <S**2>=0.000
      21 -> 23         0.55195
      22 -> 24         0.43930

 Excited State   3:      Singlet-A      6.9569 eV  178.22 nm  f=0.0000  <S**2>=0.000
      19 -> 23         0.70048

 The electronic state is 1-A.
 Alpha  occ. eigenvalues --  -10.19336 -10.19332 -10.19277 -10.19205 -10.18406
 Alpha  occ. eigenvalues --  -10.18406  -0.81677  -0.77585  -0.71720  -0.61903
 Alpha  occ. eigenvalues --   -0.55721  -0.55312  -0.48266  -0.45758  -0.42844
 Alpha  occ. eigenvalues --   -0.40308  -0.37956  -0.36117  -0.34447  -0.33754
 Alpha  occ. eigenvalues --   -0.28592  -0.20925
 Alpha virt. eigenvalues --   -0.04434   0.04759   0.10067   0.10230   0.12384
 Alpha virt. eigenvalues --    0.13065   0.14325   0.16379   0.18672   0.18735
 Alpha virt. eigenvalues --    0.21033   0.31114   0.33531   0.35104   0.37419

 Mulliken atomic charges:
              1
     1  C   -0.355241
     2  C   -0.059952
     3  C   -0.121750
     4  C   -0.121750
     5  C   -0.059953
     6  C   -0.355241
     7  H    0.124175
     8  H    0.124175
     9  H    0.126793
    10  H    0.141239
    11  H    0.144737
    12  H    0.144737
    13  H    0.141239
    14  H    0.126793
 Sum of Mulliken atomic charges =   0.00000

 Dipole moment (field-independent basis, Debye):
    X=              0.0000    Y=              0.0000    Z=              0.0000  Tot=              0.0000
 Quadrupole moment (field-independent basis, Debye-Ang):
   XX=            -33.7392   YY=            -33.1461   ZZ=            -40.8286
   XY=              0.0322   XZ=              0.0000   YZ=              0.0000

 Normal termination of Gaussian 09 at Thu Oct  3 21:20:33 2019.
