 Gaussian 09, Revision A.01,
 Gaussian 09:  EM64L-G09RevA.01  8-May-2009

 ----------------------------------------------------------------
 # pbepbe/6-31G** opt(maxcycles=500) Freq=(savenormalmodes,raman)
 ----------------------------------------------------------------

 -----
 Title
 -----
 Symbolic Z-matrix:
 Charge =  0 Multiplicity = 1

 SCF Done:  E(RPBE-PBE) =  -934.878637980     A.U. after   17 cycles
 SCF Done:  E(RPBE-PBE) =  -934.890701201     A.U. after   15 cycles
 SCF Done:  E(RPBE-PBE) =  -934.891180260     A.U. after   18 cycles
 SCF Done:  E(RPBE-PBE) =  -934.891214238     A.U. after   18 cycles
 SCF Done:  E(RPBE-PBE) =  -934.891167717     A.U. after   18 cycles
 SCF Done:  E(RPBE-PBE) =  -934.891216748     A.U. after   12 cycles
 SCF Done:  E(RPBE-PBE) =  -934.891214962     A.U. after   18 cycles
 SCF Done:  E(RPBE-PBE) =  -934.891219476     A.U. after   12 cycles
 Optimization completed.
    -- Stationary point found.
 Normal termination of Gaussian 09 at Thu Oct 31 22:59:24 2019.

 ----------------------------------------------------------------------
 #N Geom=AllCheck Guess=TCheck SCRF=Check GenChk RPBEPBE/6-31G(d,p) Fre
 q
 ----------------------------------------------------------------------

 Title
 -----
 Redundant internal coordinates taken from checkpoint file:
 freq.chk
 Charge =  0 Multiplicity = 1

                         Standard orientation:
 ---------------------------------------------------------------------
 Center     Atomic      Atomic             Coordinates (Angstroms)
 Number     Number       Type             X           Y           Z
 ---------------------------------------------------------------------
      1          8           0        5.235738    0.617373   -0.000447
      2         16           0       -4.174003    0.235363    0.000321
      3          8           0       -2.823384   -1.994591    0.000309
      4          6           0        1.167585   -0.421726   -0.000102
      5          6           0        1.556377    0.940295   -0.000241
      6          6           0        2.197884   -1.395767   -0.000093
      7          6           0        2.899520    1.308740   -0.000357
      8          6           0        3.544975   -1.042769   -0.000206
      9          6           0        3.904328    0.318063   -0.000338
     10          6           0       -0.217686   -0.864653    0.000031
     11          6           0       -1.347603   -0.104838    0.000115
     12          6           0       -2.659346   -0.776722    0.000257
     13          1           0        0.794323    1.725075   -0.000265
     14          1           0        1.921170   -2.455092    0.000009
     15          1           0        3.179454    2.368794   -0.000467
     16          1           0        4.333758   -1.798955   -0.000197
     17          1           0       -0.378007   -1.951357    0.000077
     18          1           0       -1.307445    0.986861    0.000096
     19          1           0        5.334084    1.588162   -0.000531
     20          6           0       -3.653008    1.991377    0.000316
     21          1           0       -4.585845    2.575183    0.000443
     22          1           0       -3.082324    2.250658   -0.903768
     23          1           0       -3.082104    2.250606    0.904277
 ---------------------------------------------------------------------

 SCF Done:  E(RPBE-PBE) =  -934.891219476     A.U. after    1 cycles

 The electronic state is 1-A.
 Alpha  occ. eigenvalues --  -88.06608 -18.82685 -18.75159  -9.99062  -9.98147
 Alpha  occ. eigenvalues --   -9.93206  -9.92500  -9.92338  -9.92333  -9.92307
 Alpha  occ. eigenvalues --   -9.92125  -9.91506  -9.91155  -7.67583  -5.69993
 Alpha  occ. eigenvalues --   -5.69460  -5.68872  -0.99087  -0.93531  -0.79058
 Alpha  occ. eigenvalues --   -0.73091  -0.71342  -0.69167  -0.67017  -0.60808
 Alpha  occ. eigenvalues --   -0.58082  -0.57338  -0.52684  -0.50537  -0.46841
 Alpha  occ. eigenvalues --   -0.45213  -0.42711  -0.41113  -0.40073  -0.38794
 Alpha  occ. eigenvalues --   -0.38678  -0.38280  -0.37583  -0.35618  -0.35081
 Alpha  occ. eigenvalues --   -0.34686  -0.34075  -0.32205  -0.31905  -0.30337
 Alpha  occ. eigenvalues --   -0.28489  -0.25429  -0.24061  -0.20338  -0.20138
 Alpha  occ. eigenvalues --   -0.19515
 Alpha virt. eigenvalues --   -0.09420  -0.04762  -0.01475   0.01335   0.02453
 Alpha virt. eigenvalues --    0.04591   0.04741   0.05273   0.07041   0.09757
 Alpha virt. eigenvalues --    0.10327   0.11574   0.11780   0.12092   0.13339

 Mulliken atomic charges:
              1
     1  O   -0.510348
     2  S    0.132205
     3  O   -0.419419
     4  C    0.122071
     5  C   -0.125139
     6  C   -0.142992
     7  C   -0.143328
     8  C   -0.111958
     9  C    0.308623
    10  C   -0.101169
    11  C   -0.135954
    12  C    0.199693
    13  H    0.100210
    14  H    0.112288
    15  H    0.095379
    16  H    0.117266
    17  H    0.131833
    18  H    0.092959
    19  H    0.321118
    20  C   -0.540776
    21  H    0.169725
    22  H    0.163857
    23  H    0.163857
 Sum of Mulliken atomic charges =   0.00000

 Dipole moment (field-independent basis, Debye):
    X=              4.4568    Y=              4.9014    Z=             -0.0005  Tot=              6.6247
 Quadrupole moment (field-independent basis, Debye-Ang):
   XX=            -85.0773   YY=            -73.7013   ZZ=            -85.9038
   XY=             -5.2078   XZ=             -0.0005   YZ=             -0.0002

  Exact polarizability: 278.081  -3.505 141.260  -0.018  -0.004  54.280
 Approx polarizability: 563.475   2.013 316.248  -0.037  -0.012  93.210

                     1                      2                      3
                     A                      A                      A
 Frequencies --    27.5086                53.0237                69.6690
 Red. masses --     3.7102                 6.2603                 5.3762
 Frc consts  --     0.0017                 0.0104                 0.0154
 IR Inten    --     0.1351                 1.2201                 0.5967
 Raman Activ --     3.0783                 0.3285                 2.3738

                     4                      5                      6
                     A                      A                      A
 Frequencies --    90.4275               115.0934               178.4930
 Red. masses --     6.8939                 2.2126                 3.9130
 Frc consts  --     0.0332                 0.0173                 0.0735
 IR Inten    --     0.1271                 0.1028                 0.1117
 Raman Activ --     0.4665                 1.4796                 4.8093

                     7                      8                      9
                     A                      A                      A
 Frequencies --   185.5248               205.2030               218.5569
 Red. masses --     1.3681                 2.7122                 8.9754
 Frc consts  --     0.0277                 0.0673                 0.2526
 IR Inten    --     0.2386                 0.4121                 3.7387
 Raman Activ --     0.3673                 0.4848                 6.8481

                    10                     11                     12
                     A                      A                      A
 Frequencies --   290.0779               364.3334               396.1200
 Red. masses --     5.5269                 3.7313                 4.5537
 Frc consts  --     0.2740                 0.2918                 0.4210
 IR Inten    --     6.5870                 0.2008                 6.9390
 Raman Activ --     1.7472                 1.7265                 0.8893

                    13                     14                     15
                     A                      A                      A
 Frequencies --   399.9458               404.5998               411.2153
 Red. masses --     1.4539                11.4054                 1.8441
 Frc consts  --     0.1370                 1.1000                 0.1837
 IR Inten    --    64.2095                 0.8661                47.8011
 Raman Activ --     2.2659                21.0105                 2.1067

                    16                     17                     18
                     A                      A                      A
 Frequencies --   470.2500               500.1927               521.0917
 Red. masses --     4.9978                 2.3670                 6.1794
 Frc consts  --     0.6512                 0.3489                 0.9886
 IR Inten    --    16.8224                12.4331                43.6885
 Raman Activ --     0.4886                 0.1464                 7.3823

                    19                     20                     21
                     A                      A                      A
 Frequencies --   617.6626               634.6494               700.0019
 Red. masses --     5.6743                 6.9096                 5.9085
 Frc consts  --     1.2754                 1.6397                 1.7058
 IR Inten    --     1.0472                 1.8494                 2.3890
 Raman Activ --     0.1483                10.2471                 5.5649

                    22                     23                     24
                     A                      A                      A
 Frequencies --   701.2509               735.9456               777.4908
 Red. masses --     4.9277                 6.6457                 1.3567
 Frc consts  --     1.4277                 2.1207                 0.4832
 IR Inten    --     0.2466                50.7919                16.5604
 Raman Activ --     0.0449                20.3888                 6.3898

                    25                     26                     27
                     A                      A                      A
 Frequencies --   800.2608               823.9961               831.7724
 Red. masses --     1.6023                 6.3309                 1.7907
 Frc consts  --     0.6046                 2.5326                 0.7299
 IR Inten    --    38.5679                60.9531                 0.9268
 Raman Activ --     8.4682                11.6759                 3.1090

                    28                     29                     30
                     A                      A                      A
 Frequencies --   884.6668               898.5836               924.2886
 Red. masses --     4.5553                 1.3001                 1.2810
 Frc consts  --     2.1005                 0.6185                 0.6448
 IR Inten    --    32.2209                 0.0022                 0.4838
 Raman Activ --    61.5770                 1.1122                 1.5040

                    31                     32                     33
                     A                      A                      A
 Frequencies --   938.3598               941.5114               988.1331
 Red. masses --     1.3590                 1.1902                 1.1844
 Frc consts  --     0.7050                 0.6216                 0.6814
 IR Inten    --    71.4928                 5.6225                20.3387
 Raman Activ --    60.5537                 5.3512                 3.0561

                    34                     35                     36
                     A                      A                      A
 Frequencies --   995.7383              1044.2011              1099.1107
 Red. masses --     2.5557                 3.2167                 1.3503
 Frc consts  --     1.4930                 2.0664                 0.9611
 IR Inten    --     0.1794               341.8237                20.9465
 Raman Activ --     0.2040               223.5671                 3.2442

                    37                     38                     39
                     A                      A                      A
 Frequencies --  1162.1349              1171.6840              1206.4823
 Red. masses --     1.1623                 1.2364                 1.4496
 Frc consts  --     0.9249                 1.0001                 1.2432
 IR Inten    --   152.9181               101.4395                13.6263
 Raman Activ --   115.6172                10.3200                78.1205

                    40                     41                     42
                     A                      A                      A
 Frequencies --  1283.6992              1295.9411              1304.8687
 Red. masses --     2.0284                 2.1327                 2.1688
 Frc consts  --     1.9694                 2.1103                 2.1757
 IR Inten    --    99.2673                50.7771                17.9663
 Raman Activ --    10.1332                 5.1431                75.6535

                    43                     44                     45
                     A                      A                      A
 Frequencies --  1313.9032              1320.0149              1382.4069
 Red. masses --     1.4241                 1.1923                 3.9941
 Frc consts  --     1.4485                 1.2241                 4.4972
 IR Inten    --    13.3207                 7.8461               115.0940
 Raman Activ --    50.3253                43.3106                38.9983

                    46                     47                     48
                     A                      A                      A
 Frequencies --  1438.6019              1442.7223              1445.6034
 Red. masses --     1.0504                 2.7462                 1.1632
 Frc consts  --     1.2808                 3.3679                 1.4322
 IR Inten    --     8.8161                79.9531                17.7567
 Raman Activ --    27.2606                38.0714                 4.8081

                    49                     50                     51
                     A                      A                      A
 Frequencies --  1515.1989              1585.5367              1601.9029
 Red. masses --     2.9614                 5.7138                 6.1159
 Frc consts  --     4.0058                 8.4631                 9.2467
 IR Inten    --    96.1466                 1.0438               596.7789
 Raman Activ --    60.1786                34.0705              3105.0308

                    52                     53                     54
                     A                      A                      A
 Frequencies --  1633.4202              1698.7553              2994.8858
 Red. masses --     6.4486                10.1112                 1.0300
 Frc consts  --    10.1371                17.1916                 5.4432
 IR Inten    --    10.7799               167.0288                13.8313
 Raman Activ --    13.7508                47.4165               157.2548

                    55                     56                     57
                     A                      A                      A
 Frequencies --  3088.5177              3092.9408              3093.0528
 Red. masses --     1.0878                 1.1080                 1.1032
 Frc consts  --     6.1136                 6.2449                 6.2185
 IR Inten    --     1.8244                 7.2996                 3.4045
 Raman Activ --    33.6618                37.7164               149.0773

                    58                     59                     60
                     A                      A                      A
 Frequencies --  3100.7795              3121.7208              3131.9813
 Red. masses --     1.0884                 1.0890                 1.0924
 Frc consts  --     6.1659                 6.2525                 6.3135
 IR Inten    --    19.2433                 4.3180                 5.4842
 Raman Activ --   110.0392                65.6299                31.7774

                    61                     62                     63
                     A                      A                      A
 Frequencies --  3144.7810              3151.5752              3700.8984
 Red. masses --     1.0885                 1.0937                 1.0657
 Frc consts  --     6.3425                 6.4005                 8.6004
 IR Inten    --    12.2399                 5.5336                73.3184
 Raman Activ --    26.8432               204.7403               297.1354

 - Thermochemistry -
 -------------------
 Temperature   298.150 Kelvin.  Pressure   1.00000 Atm.
 Atom     1 has atomic number  8 and mass  15.99491

 Molecular mass:   194.04015 amu.
 Principal axes and moments of inertia in atomic units:
                           1         2         3
     Eigenvalues --   891.782667265.598428145.61583
           X            0.99993  -0.01181   0.00008
           Y            0.01181   0.99993   0.00004
           Z           -0.00009  -0.00004   1.00000
 This molecule is an asymmetric top.
 Rotational symmetry number  1.
 Warning -- assumption of classical behavior for rotation
           may cause significant error
 Rotational temperatures (Kelvin)      0.09712     0.01192     0.01063
 Rotational constants (GHZ):           2.02375     0.24840     0.22156
 Zero-point vibrational energy     452565.0 (Joules/Mol)
                                  108.16563 (Kcal/Mol)
 Warning -- explicit consideration of  19 degrees of freedom as
           vibrations may cause significant error
 Vibrational temperatures:     39.58    76.29   100.24   130.10   165.59
          (Kelvin)            256.81   266.93   295.24   314.45   417.36
                              524.19   569.93   575.43   582.13   591.65
                              676.58   719.66   749.73   888.68   913.12
                             1007.15  1008.94  1058.86  1118.63  1151.40
                             1185.55  1196.73  1272.84  1292.86  1329.84
                             1350.09  1354.62  1421.70  1432.64  1502.37
                             1581.37  1672.05  1685.79  1735.86  1846.95
                             1864.57  1877.41  1890.41  1899.20  1988.97
                             2069.82  2075.75  2079.90  2180.03  2281.23
                             2304.78  2350.12  2444.13  4308.97  4443.68
                             4450.05  4450.21  4461.32  4491.45  4506.22
                             4524.63  4534.41  5324.76

 Zero-point correction=                           0.172373 (Hartree/Particle)
 Thermal correction to Energy=                    0.185578
 Thermal correction to Enthalpy=                  0.186522
 Thermal correction to Gibbs Free Energy=         0.131102
 Sum of electronic and zero-point Energies=           -934.718847
 Sum of electronic and thermal Energies=              -934.705641
 Sum of electronic and thermal Enthalpies=            -934.704697
 Sum of electronic and thermal Free Energies=         -934.760118

                     E (Thermal)             CV                S
                      KCal/Mol        Cal/Mol-Kelvin    Cal/Mol-Kelvin
 Total                  116.452             48.750            116.643
 Electronic               0.000              0.000              0.000
 Translational            0.889              2.981             41.694
 Rotational               0.889              2.981             32.334
 Vibrational            114.675             42.789             42.614
 Vibration     1          0.593              1.984              6.001
 Vibration     2          0.596              1.976              4.701
 Vibration     3          0.598              1.969              4.163
 Vibration     4          0.602              1.956              3.651
 Vibration     5          0.608              1.937              3.181
 Vibration     6          0.629              1.869              2.344
 Vibration     7          0.632              1.860              2.272
 Vibration     8          0.640              1.832              2.086
 Vibration     9          0.646              1.813              1.971
 Vibration    10          0.686              1.692              1.474
 Vibration    11          0.738              1.546              1.104
 Vibration    12          0.763              1.478              0.977
 Vibration    13          0.766              1.470              0.963
 Vibration    14          0.770              1.460              0.946
 Vibration    15          0.775              1.446              0.922
 Vibration    16          0.827              1.316              0.737
 Vibration    17          0.856              1.250              0.658
 Vibration    18          0.876              1.203              0.607
 Vibration    19          0.977              0.995              0.420

 Optimization completed.
    -- Stationary point found.
 Normal termination of Gaussian 09 at Thu Oct 31 23:03:12 2019.
