 Gaussian 09, Revision A.01,
 Gaussian 09:  EM64L-G09RevA.01  8-May-2009

 ---------------------------------------------------
 # pbepbe/6-31G** force nosymm td(root=7,nstates=10)
 ---------------------------------------------------

 -----
 Title
 -----
 Symbolic Z-matrix:
 Charge =  0 Multiplicity = 1

                          Input orientation:
 ---------------------------------------------------------------------
 Center     Atomic      Atomic             Coordinates (Angstroms)
 Number     Number       Type             X           Y           Z
 ---------------------------------------------------------------------
      1          8           0        5.235738    0.617373   -0.000447
      2         16           0       -4.174003    0.235363    0.000321
      3          8           0       -2.823384   -1.994591    0.000309
      4          6           0        1.167585   -0.421726   -0.000102
      5          6           0        1.556377    0.940295   -0.000241
      6          6           0        2.197884   -1.395767   -0.000093
      7          6           0        2.899520    1.308740   -0.000357
      8          6           0        3.544975   -1.042769   -0.000206
      9          6           0        3.904328    0.318063   -0.000338
     10          6           0       -0.217686   -0.864653    0.000031
     11          6           0       -1.347603   -0.104838    0.000115
     12          6           0       -2.659346   -0.776722    0.000257
     13          1           0        0.794323    1.725075   -0.000265
     14          1           0        1.921170   -2.455092    0.000009
     15          1           0        3.179454    2.368794   -0.000467
     16          1           0        4.333758   -1.798955   -0.000197
     17          1           0       -0.378007   -1.951357    0.000077
     18          1           0       -1.307445    0.986861    0.000096
     19          1           0        5.334084    1.588162   -0.000531
     20          6           0       -3.653008    1.991377    0.000316
     21          1           0       -4.585845    2.575183    0.000443
     22          1           0       -3.082324    2.250658   -0.903768
     23          1           0       -3.082104    2.250606    0.904277
 ---------------------------------------------------------------------

 SCF Done:  E(RPBE-PBE) =  -934.891219475     A.U. after   18 cycles

 Excitation energies and oscillator strengths:

 Excited state symmetry could not be determined.
 Excited State   1:      Singlet-?Sym    3.0147 eV  411.26 nm  f=0.0000  <S**2>=0.000
      50 -> 52         0.70670

 Excited state symmetry could not be determined.
 Excited State   2:      Singlet-?Sym    3.2482 eV  381.70 nm  f=0.1254  <S**2>=0.000
      49 -> 52         0.59950
      51 -> 52        -0.35741

 Excited state symmetry could not be determined.
 Excited State   3:      Singlet-?Sym    3.6943 eV  335.61 nm  f=0.5426  <S**2>=0.000
      47 -> 52        -0.13175
      49 -> 52         0.34169
      51 -> 52         0.58766
      51 -> 54        -0.12383

 Excited state symmetry could not be determined.
 Excited State   4:      Singlet-?Sym    4.0794 eV  303.93 nm  f=0.0020  <S**2>=0.000
      48 -> 52         0.56973
      51 -> 53        -0.40957

 Excited state symmetry could not be determined.
 Excited State   5:      Singlet-?Sym    4.1867 eV  296.14 nm  f=0.0000  <S**2>=0.000
      50 -> 53         0.70701

 Excited state symmetry could not be determined.
 Excited State   6:      Singlet-?Sym    4.2319 eV  292.97 nm  f=0.0031  <S**2>=0.000
      48 -> 52        -0.17382
      49 -> 53         0.66425
      51 -> 53        -0.16121

 Excited state symmetry could not be determined.
 Excited State   7:      Singlet-?Sym    4.6754 eV  265.19 nm  f=0.0572  <S**2>=0.000
      47 -> 52         0.15276
      48 -> 52         0.34084
      48 -> 54        -0.18414
      49 -> 53         0.21620
      51 -> 53         0.50719
 This state for optimization and/or second-order correction.
 Copying the excited state density for this state as the 1-particle RhoCI density.

 Excited state symmetry could not be determined.
 Excited State   8:      Singlet-?Sym    4.8787 eV  254.13 nm  f=0.2112  <S**2>=0.000
      47 -> 52         0.57453
      49 -> 54         0.15039
      51 -> 52         0.16126
      51 -> 53        -0.11455
      51 -> 54         0.27779

 Excited state symmetry could not be determined.
 Excited State   9:      Singlet-?Sym    5.1372 eV  241.35 nm  f=0.0001  <S**2>=0.000
      50 -> 54         0.70564

 Excited state symmetry could not be determined.
 Excited State  10:      Singlet-?Sym    5.2459 eV  236.35 nm  f=0.0003  <S**2>=0.000
      46 -> 52         0.70575

 Alpha  occ. eigenvalues --  -88.06608 -18.82685 -18.75159  -9.99062  -9.98147
 Alpha  occ. eigenvalues --   -9.93206  -9.92500  -9.92338  -9.92334  -9.92307
 Alpha  occ. eigenvalues --   -9.92125  -9.91506  -9.91155  -7.67583  -5.69993
 Alpha  occ. eigenvalues --   -5.69460  -5.68872  -0.99087  -0.93531  -0.79058
 Alpha  occ. eigenvalues --   -0.73091  -0.71342  -0.69167  -0.67017  -0.60808
 Alpha  occ. eigenvalues --   -0.58082  -0.57338  -0.52684  -0.50537  -0.46841
 Alpha  occ. eigenvalues --   -0.45213  -0.42711  -0.41113  -0.40073  -0.38794
 Alpha  occ. eigenvalues --   -0.38678  -0.38280  -0.37583  -0.35618  -0.35081
 Alpha  occ. eigenvalues --   -0.34686  -0.34075  -0.32205  -0.31905  -0.30337
 Alpha  occ. eigenvalues --   -0.28489  -0.25429  -0.24061  -0.20338  -0.20138
 Alpha  occ. eigenvalues --   -0.19515
 Alpha virt. eigenvalues --   -0.09420  -0.04762  -0.01475   0.01335   0.02453
 Alpha virt. eigenvalues --    0.04591   0.04741   0.05273   0.07041   0.09757
 Alpha virt. eigenvalues --    0.10327   0.11574   0.11780   0.12092   0.13339

 Mulliken atomic charges:
              1
     1  O   -0.510348
     2  S    0.132205
     3  O   -0.419419
     4  C    0.122071
     5  C   -0.125139
     6  C   -0.142991
     7  C   -0.143328
     8  C   -0.111958
     9  C    0.308623
    10  C   -0.101168
    11  C   -0.135955
    12  C    0.199693
    13  H    0.100210
    14  H    0.112288
    15  H    0.095379
    16  H    0.117265
    17  H    0.131833
    18  H    0.092959
    19  H    0.321117
    20  C   -0.540776
    21  H    0.169725
    22  H    0.163857
    23  H    0.163857
 Sum of Mulliken atomic charges =   0.00000

 Dipole moment (field-independent basis, Debye):
    X=              4.4568    Y=              4.9014    Z=             -0.0005  Tot=              6.6247
 Quadrupole moment (field-independent basis, Debye-Ang):
   XX=            -85.0773   YY=            -73.7013   ZZ=            -85.9038
   XY=             -5.2078   XZ=             -0.0005   YZ=             -0.0002

 Normal termination of Gaussian 09 at Fri Nov  1 00:32:48 2019.
