 Gaussian 09, Revision A.01,
 Gaussian 09:  EM64L-G09RevA.01  8-May-2009

 ----------------------------------------------------
 # cam-b3lyp/6-31G** opt Freq=(savenormalmodes,raman)
 ----------------------------------------------------

 -----
 Title
 -----
 Symbolic Z-matrix:
 Charge =  0 Multiplicity = 1

 SCF Done:  E(RCAM-B3LYP) =  -169.823241826     A.U. after   14 cycles
 SCF Done:  E(RCAM-B3LYP) =  -169.823249308     A.U. after    9 cycles
 SCF Done:  E(RCAM-B3LYP) =  -169.823249158     A.U. after    8 cycles
 SCF Done:  E(RCAM-B3LYP) =  -169.823249812     A.U. after    8 cycles
 Optimization completed.
    -- Stationary point found.
 Normal termination of Gaussian 09 at Wed Oct 23 13:21:50 2019.

 ----------------------------------------------------------------------
 #N Geom=AllCheck Guess=TCheck SCRF=Check GenChk RCAM-B3LYP/6-31G(d,p)
 Freq
 ----------------------------------------------------------------------

 Title
 -----
 Redundant internal coordinates taken from checkpoint file:
 freq.chk
 Charge =  0 Multiplicity = 1

                         Standard orientation:
 ---------------------------------------------------------------------
 Center     Atomic      Atomic             Coordinates (Angstroms)
 Number     Number       Type             X           Y           Z
 ---------------------------------------------------------------------
      1          6           0       -0.160735    0.387687    0.000083
      2          7           0        1.080995   -0.158228   -0.000037
      3          8           0       -1.193398   -0.245313   -0.000066
      4          1           0        1.168705   -1.162517    0.000104
      5          1           0        1.909215    0.412186    0.000224
      6          1           0       -0.133284    1.494310   -0.000044
 ---------------------------------------------------------------------

 SCF Done:  E(RCAM-B3LYP) =  -169.823249812     A.U. after    1 cycles

 The electronic state is 1-A.
 Alpha  occ. eigenvalues --  -19.18764 -14.43544 -10.36384  -1.11401  -0.98855
 Alpha  occ. eigenvalues --   -0.69882  -0.62685  -0.54675  -0.47697  -0.47244
 Alpha  occ. eigenvalues --   -0.33376  -0.31813
 Alpha virt. eigenvalues --    0.08775   0.12556   0.16202   0.21866   0.32098
 Alpha virt. eigenvalues --    0.40553   0.59208   0.60235   0.70867   0.74076
 Alpha virt. eigenvalues --    0.76154   0.77706   0.89006   0.90557   0.91268

 Mulliken atomic charges:
              1
     1  C    0.405426
     2  N   -0.579201
     3  O   -0.453842
     4  H    0.283592
     5  H    0.274848
     6  H    0.069176
 Sum of Mulliken atomic charges =   0.00000

 Dipole moment (field-independent basis, Debye):
    X=              3.7693    Y=              0.7929    Z=              0.0009  Tot=              3.8518
 Quadrupole moment (field-independent basis, Debye-Ang):
   XX=            -17.3601   YY=            -14.9988   ZZ=            -18.3651
   XY=             -1.0856   XZ=              0.0010   YZ=             -0.0001

  Exact polarizability:  27.830   0.881  21.314   0.001   0.000   9.821
 Approx polarizability:  34.929   3.522  23.717   0.001   0.001  11.680

                     1                      2                      3
                     A                      A                      A
 Frequencies --   195.9182               568.3264               647.1092
 Red. masses --     1.2205                 2.3864                 1.2037
 Frc consts  --     0.0276                 0.4541                 0.2970
 IR Inten    --   258.3628                12.4889                24.0311
 Raman Activ --     0.6454                 1.3861                 1.4750

                     4                      5                      6
                     A                      A                      A
 Frequencies --  1064.1058              1067.3102              1293.0482
 Red. masses --     1.5559                 1.7381                 2.6774
 Frc consts  --     1.0380                 1.1665                 2.6375
 IR Inten    --     0.0008                 2.3378                98.0692
 Raman Activ --     3.0210                 5.3225                 4.1193

                     7                      8                      9
                     A                      A                      A
 Frequencies --  1443.5232              1628.6580              1871.6754
 Red. masses --     1.2135                 1.2716                 7.8568
 Frc consts  --     1.4899                 1.9873                16.2164
 IR Inten    --     4.8339                83.0271               374.2335
 Raman Activ --     7.7990                 5.2963                 6.9354

                    10                     11                     12
                     A                      A                      A
 Frequencies --  2992.5936              3633.5560              3776.7881
 Red. masses --     1.0870                 1.0455                 1.1057
 Frc consts  --     5.7357                 8.1326                 9.2922
 IR Inten    --    97.7773                43.2686                48.1415
 Raman Activ --   107.3147                99.2620                50.7604

 - Thermochemistry -
 -------------------
 Temperature   298.150 Kelvin.  Pressure   1.00000 Atm.
 Atom     1 has atomic number  6 and mass  12.00000

 Molecular mass:    45.02146 amu.
 Principal axes and moments of inertia in atomic units:
                           1         2         3
     Eigenvalues --    24.54999 158.36474 182.91472
           X            0.99982  -0.01909  -0.00002
           Y            0.01909   0.99982  -0.00009
           Z            0.00002   0.00009   1.00000
 This molecule is an asymmetric top.
 Rotational symmetry number  1.
 Rotational temperatures (Kelvin)      3.52806     0.54693     0.47352
 Rotational constants (GHZ):          73.51291    11.39611     9.86657
 Zero-point vibrational energy     120718.8 (Joules/Mol)
                                   28.85249 (Kcal/Mol)
 Warning -- explicit consideration of   2 degrees of freedom as
           vibrations may cause significant error
 Vibrational temperatures:    281.88   817.69   931.04  1531.01  1535.62
          (Kelvin)           1860.41  2076.91  2343.27  2692.92  4305.67
                             5227.87  5433.95

 Zero-point correction=                           0.045979 (Hartree/Particle)
 Thermal correction to Energy=                    0.049772
 Thermal correction to Enthalpy=                  0.050716
 Thermal correction to Gibbs Free Energy=         0.021362
 Sum of electronic and zero-point Energies=           -169.777270
 Sum of electronic and thermal Energies=              -169.773478
 Sum of electronic and thermal Enthalpies=            -169.772534
 Sum of electronic and thermal Free Energies=         -169.801888

                     E (Thermal)             CV                S
                      KCal/Mol        Cal/Mol-Kelvin    Cal/Mol-Kelvin
 Total                   31.232             10.772             61.780
 Electronic               0.000              0.000              0.000
 Translational            0.889              2.981             37.339
 Rotational               0.889              2.981             21.191
 Vibrational             29.455              4.810              3.250
 Vibration     1          0.636              1.846              2.171
 Vibration     2          0.924              1.100              0.507

 Optimization completed.
    -- Stationary point found.
 Normal termination of Gaussian 09 at Wed Oct 23 13:22:02 2019.
