 Gaussian 09, Revision A.01,
 Gaussian 09:  EM64L-G09RevA.01  8-May-2009

 ------------------------------------------------------
 # cam-b3lyp/6-31G** force nosymm td(root=1,nstates=10)
 ------------------------------------------------------

 -----
 Title
 -----
 Symbolic Z-matrix:
 Charge =  0 Multiplicity = 1

                          Input orientation:
 ---------------------------------------------------------------------
 Center     Atomic      Atomic             Coordinates (Angstroms)
 Number     Number       Type             X           Y           Z
 ---------------------------------------------------------------------
      1          6           0       -0.160735    0.387687    0.000083
      2          7           0        1.080995   -0.158228   -0.000037
      3          8           0       -1.193398   -0.245313   -0.000066
      4          1           0        1.168705   -1.162517    0.000104
      5          1           0        1.909215    0.412186    0.000224
      6          1           0       -0.133284    1.494310   -0.000044
 ---------------------------------------------------------------------

 SCF Done:  E(RCAM-B3LYP) =  -169.823249812     A.U. after   14 cycles

 Excitation energies and oscillator strengths:

 Excited state symmetry could not be determined.
 Excited State   1:      Singlet-?Sym    5.7633 eV  215.13 nm  f=0.0011  <S**2>=0.000
      12 -> 13         0.70631
 This state for optimization and/or second-order correction.
 Copying the excited state density for this state as the 1-particle RhoCI density.

 Excited state symmetry could not be determined.
 Excited State   2:      Singlet-?Sym    8.0575 eV  153.87 nm  f=0.0922  <S**2>=0.000
      11 -> 13         0.60894
      12 -> 14         0.34225

 Excited state symmetry could not be determined.
 Excited State   3:      Singlet-?Sym    8.4371 eV  146.95 nm  f=0.0030  <S**2>=0.000
      10 -> 14         0.10480
      11 -> 14         0.69765

 Excited state symmetry could not be determined.
 Excited State   4:      Singlet-?Sym    9.2883 eV  133.48 nm  f=0.0003  <S**2>=0.000
      11 -> 15         0.69261

 Excited state symmetry could not be determined.
 Excited State   5:      Singlet-?Sym    9.3488 eV  132.62 nm  f=0.2592  <S**2>=0.000
      11 -> 13        -0.30537
      12 -> 14         0.57875
      12 -> 15        -0.25081

 Excited state symmetry could not be determined.
 Excited State   6:      Singlet-?Sym    9.6427 eV  128.58 nm  f=0.1453  <S**2>=0.000
      10 -> 13        -0.10422
      11 -> 13        -0.13331
      12 -> 14         0.19616
      12 -> 15         0.64780

 Excited state symmetry could not be determined.
 Excited State   7:      Singlet-?Sym   10.3151 eV  120.20 nm  f=0.0029  <S**2>=0.000
       9 -> 13         0.70436

 Excited state symmetry could not be determined.
 Excited State   8:      Singlet-?Sym   10.9360 eV  113.37 nm  f=0.0000  <S**2>=0.000
      11 -> 15         0.11075
      11 -> 16         0.68594

 Excited state symmetry could not be determined.
 Excited State   9:      Singlet-?Sym   11.0106 eV  112.60 nm  f=0.0088  <S**2>=0.000
      10 -> 13        -0.14630
      12 -> 16         0.67511

 Excited state symmetry could not be determined.
 Excited State  10:      Singlet-?Sym   11.7312 eV  105.69 nm  f=0.1063  <S**2>=0.000
      10 -> 13         0.65283
      12 -> 16         0.16688
      12 -> 17         0.10060

 Alpha  occ. eigenvalues --  -19.18764 -14.43544 -10.36384  -1.11401  -0.98855
 Alpha  occ. eigenvalues --   -0.69882  -0.62685  -0.54675  -0.47697  -0.47244
 Alpha  occ. eigenvalues --   -0.33376  -0.31813
 Alpha virt. eigenvalues --    0.08775   0.12556   0.16202   0.21866   0.32098
 Alpha virt. eigenvalues --    0.40553   0.59208   0.60235   0.70867   0.74076
 Alpha virt. eigenvalues --    0.76154   0.77706   0.89006   0.90557   0.91268

 Mulliken atomic charges:
              1
     1  C    0.405426
     2  N   -0.579201
     3  O   -0.453842
     4  H    0.283592
     5  H    0.274848
     6  H    0.069176
 Sum of Mulliken atomic charges =   0.00000

 Dipole moment (field-independent basis, Debye):
    X=              3.7693    Y=              0.7929    Z=              0.0009  Tot=              3.8518
 Quadrupole moment (field-independent basis, Debye-Ang):
   XX=            -17.3601   YY=            -14.9988   ZZ=            -18.3651
   XY=             -1.0856   XZ=              0.0010   YZ=             -0.0001

 Normal termination of Gaussian 09 at Wed Oct 30 12:57:42 2019.
