 Gaussian 09, Revision A.01,
 Gaussian 09:  EM64L-G09RevA.01  8-May-2009

 -----------------------------------------------------
 # cam-b3lyp/6-31G** force nosymm td(root=3,nstates=8)
 -----------------------------------------------------

 -----
 Title
 -----
 Symbolic Z-matrix:
 Charge =  0 Multiplicity = 1

                          Input orientation:
 ---------------------------------------------------------------------
 Center     Atomic      Atomic             Coordinates (Angstroms)
 Number     Number       Type             X           Y           Z
 ---------------------------------------------------------------------
      1          6           0       -0.161453    0.387024   -0.000100
      2          7           0        1.081733   -0.157452   -0.000076
      3          8           0       -1.194449   -0.245367    0.000068
      4          1           0        1.174611   -1.162764    0.000191
      5          1           0        1.912136    0.412757    0.000321
      6          1           0       -0.134568    1.492965    0.000079
 ---------------------------------------------------------------------

 SCF Done:  E(RCAM-B3LYP) =  -169.823241826     A.U. after   14 cycles

 Excitation energies and oscillator strengths:

 Excited state symmetry could not be determined.
 Excited State   1:      Singlet-?Sym    5.7627 eV  215.15 nm  f=0.0011  <S**2>=0.000
      12 -> 13         0.70630

 Excited state symmetry could not be determined.
 Excited State   2:      Singlet-?Sym    8.0543 eV  153.94 nm  f=0.0915  <S**2>=0.000
      11 -> 13         0.60823
      12 -> 14         0.34352

 Excited state symmetry could not be determined.
 Excited State   3:      Singlet-?Sym    8.4252 eV  147.16 nm  f=0.0030  <S**2>=0.000
      10 -> 14         0.10492
      11 -> 14         0.69763
 This state for optimization and/or second-order correction.
 Copying the excited state density for this state as the 1-particle RhoCI density.

 Excited state symmetry could not be determined.
 Excited State   4:      Singlet-?Sym    9.2774 eV  133.64 nm  f=0.0003  <S**2>=0.000
      11 -> 15         0.69247

 Excited state symmetry could not be determined.
 Excited State   5:      Singlet-?Sym    9.3415 eV  132.72 nm  f=0.2608  <S**2>=0.000
      11 -> 13        -0.30706
      12 -> 14         0.57899
      12 -> 15        -0.24808

 Excited state symmetry could not be determined.
 Excited State   6:      Singlet-?Sym    9.6405 eV  128.61 nm  f=0.1438  <S**2>=0.000
      10 -> 13        -0.10371
      11 -> 13        -0.13253
      12 -> 14         0.19364
      12 -> 15         0.64880

 Excited state symmetry could not be determined.
 Excited State   7:      Singlet-?Sym   10.3148 eV  120.20 nm  f=0.0029  <S**2>=0.000
       9 -> 13         0.70434

 Excited state symmetry could not be determined.
 Excited State   8:      Singlet-?Sym   10.9329 eV  113.40 nm  f=0.0000  <S**2>=0.000
      11 -> 15         0.11088
      11 -> 16         0.68605

 Alpha  occ. eigenvalues --  -19.18776 -14.43569 -10.36394  -1.11392  -0.98811
 Alpha  occ. eigenvalues --   -0.69889  -0.62604  -0.54660  -0.47700  -0.47230
 Alpha  occ. eigenvalues --   -0.33376  -0.31818
 Alpha virt. eigenvalues --    0.08769   0.12511   0.16182   0.21850   0.32101
 Alpha virt. eigenvalues --    0.40538   0.59218   0.60216   0.70830   0.74155
 Alpha virt. eigenvalues --    0.76156   0.77708   0.89044   0.90464   0.91205

 Mulliken atomic charges:
              1
     1  C    0.406122
     2  N   -0.580399
     3  O   -0.453504
     4  H    0.283557
     5  H    0.274972
     6  H    0.069251
 Sum of Mulliken atomic charges =   0.00000

 Dipole moment (field-independent basis, Debye):
    X=              3.7738    Y=              0.7914    Z=              0.0009  Tot=              3.8559
 Quadrupole moment (field-independent basis, Debye-Ang):
   XX=            -17.3382   YY=            -15.0042   ZZ=            -18.3692
   XY=             -1.0965   XZ=              0.0022   YZ=             -0.0002

 Normal termination of Gaussian 09 at Wed Oct 30 12:57:06 2019.
