 Gaussian 09, Revision A.01,
 Gaussian 09:  EM64L-G09RevA.01  8-May-2009

 ----------------------------------------------------------
 # cam-b3lyp/aug-cc-pvtz force nosymm td(root=1,nstates=20)
 ----------------------------------------------------------

 -----
 Title
 -----
 Symbolic Z-matrix:
 Charge =  0 Multiplicity = 1

                          Input orientation:
 ---------------------------------------------------------------------
 Center     Atomic      Atomic             Coordinates (Angstroms)
 Number     Number       Type             X           Y           Z
 ---------------------------------------------------------------------
      1          6           0       -0.160857    0.386261   -0.000004
      2          7           0        1.077168   -0.157071   -0.000017
      3          8           0       -1.188063   -0.245846   -0.000027
      4          1           0        1.174650   -1.157961    0.000127
      5          1           0        1.898249    0.418362    0.000231
      6          1           0       -0.143425    1.488304    0.000008
 ---------------------------------------------------------------------

 SCF Done:  E(RCAM-B3LYP) =  -169.897789354     A.U. after   11 cycles

 Excitation energies and oscillator strengths:

 Excited state symmetry could not be determined.
 Excited State   1:      Singlet-?Sym    5.6578 eV  219.14 nm  f=0.0008  <S**2>=0.000
      12 -> 16         0.60835
      12 -> 17        -0.32589
      12 -> 22         0.10768
 This state for optimization and/or second-order correction.
 Copying the excited state density for this state as the 1-particle RhoCI density.

 Excited state symmetry could not be determined.
 Excited State   2:      Singlet-?Sym    6.7266 eV  184.32 nm  f=0.0172  <S**2>=0.000
      11 -> 13         0.66417
      11 -> 18         0.11126
      11 -> 19        -0.13488
      11 -> 20        -0.12128

 Excited state symmetry could not be determined.
 Excited State   3:      Singlet-?Sym    6.7506 eV  183.66 nm  f=0.0053  <S**2>=0.000
      11 -> 16         0.15990
      11 -> 17        -0.10968
      12 -> 13         0.62652
      12 -> 15         0.16659
      12 -> 19        -0.12471

 Excited state symmetry could not be determined.
 Excited State   4:      Singlet-?Sym    7.2737 eV  170.46 nm  f=0.0663  <S**2>=0.000
      11 -> 16         0.10876
      12 -> 14         0.64931
      12 -> 19        -0.11407
      12 -> 21        -0.16202

 Excited state symmetry could not be determined.
 Excited State   5:      Singlet-?Sym    7.4984 eV  165.35 nm  f=0.0005  <S**2>=0.000
      11 -> 14         0.64231
      11 -> 15         0.14487
      11 -> 21        -0.21949

 Excited state symmetry could not be determined.
 Excited State   6:      Singlet-?Sym    7.6410 eV  162.26 nm  f=0.0714  <S**2>=0.000
      11 -> 16        -0.25977
      11 -> 17         0.18605
      12 -> 14         0.12059
      12 -> 15         0.52920
      12 -> 18        -0.25164
      12 -> 19        -0.12314
      12 -> 23        -0.11617

 Excited state symmetry could not be determined.
 Excited State   7:      Singlet-?Sym    7.8286 eV  158.37 nm  f=0.2306  <S**2>=0.000
      11 -> 16         0.44863
      11 -> 17        -0.32591
      12 -> 13        -0.28079
      12 -> 15         0.28967

 Excited state symmetry could not be determined.
 Excited State   8:      Singlet-?Sym    8.0887 eV  153.28 nm  f=0.0129  <S**2>=0.000
      11 -> 14        -0.11046
      11 -> 15         0.45353
      11 -> 23        -0.11670
      12 -> 16        -0.23443
      12 -> 17        -0.43078

 Excited state symmetry could not be determined.
 Excited State   9:      Singlet-?Sym    8.0980 eV  153.10 nm  f=0.0002  <S**2>=0.000
      11 -> 14        -0.10643
      11 -> 15         0.45247
      11 -> 23        -0.10899
      12 -> 16         0.23556
      12 -> 17         0.43573

 Excited state symmetry could not be determined.
 Excited State  10:      Singlet-?Sym    8.5050 eV  145.78 nm  f=0.0087  <S**2>=0.000
      11 -> 16         0.39606
      11 -> 17         0.57294

 Excited state symmetry could not be determined.
 Excited State  11:      Singlet-?Sym    8.6616 eV  143.14 nm  f=0.0110  <S**2>=0.000
      12 -> 15         0.27300
      12 -> 18         0.44654
      12 -> 19         0.43978

 Excited state symmetry could not be determined.
 Excited State  12:      Singlet-?Sym    8.9113 eV  139.13 nm  f=0.0008  <S**2>=0.000
      11 -> 16         0.11231
      12 -> 14         0.12111
      12 -> 18        -0.38568
      12 -> 19         0.43526
      12 -> 20        -0.33181

 Excited state symmetry could not be determined.
 Excited State  13:      Singlet-?Sym    9.0129 eV  137.56 nm  f=0.0070  <S**2>=0.000
      11 -> 18         0.56063
      11 -> 19         0.32425
      11 -> 24        -0.20807
      11 -> 29         0.11291

 Excited state symmetry could not be determined.
 Excited State  14:      Singlet-?Sym    9.1694 eV  135.21 nm  f=0.0052  <S**2>=0.000
      11 -> 13         0.13776
      11 -> 18        -0.28567
      11 -> 19         0.55975
      11 -> 20        -0.18628

 Excited state symmetry could not be determined.
 Excited State  15:      Singlet-?Sym    9.4565 eV  131.11 nm  f=0.0345  <S**2>=0.000
      12 -> 13         0.12359
      12 -> 18        -0.22052
      12 -> 19         0.15706
      12 -> 20         0.52186
      12 -> 21        -0.23022
      12 -> 23         0.23092

 Excited state symmetry could not be determined.
 Excited State  16:      Singlet-?Sym    9.5959 eV  129.21 nm  f=0.0009  <S**2>=0.000
      11 -> 13         0.17727
      11 -> 19         0.11901
      11 -> 20         0.63020
      11 -> 23        -0.12018

 Excited state symmetry could not be determined.
 Excited State  17:      Singlet-?Sym    9.6781 eV  128.11 nm  f=0.0183  <S**2>=0.000
      12 -> 14         0.14346
      12 -> 20         0.17026
      12 -> 21         0.61185
      12 -> 23         0.17283
      12 -> 26         0.12516

 Excited state symmetry could not be determined.
 Excited State  18:      Singlet-?Sym    9.7207 eV  127.55 nm  f=0.0346  <S**2>=0.000
      12 -> 19        -0.13897
      12 -> 20        -0.21769
      12 -> 21        -0.11674
      12 -> 23         0.49791
      12 -> 24        -0.36559

 Excited state symmetry could not be determined.
 Excited State  19:      Singlet-?Sym    9.7465 eV  127.21 nm  f=0.0024  <S**2>=0.000
      12 -> 17         0.10168
      12 -> 22         0.68309

 Excited state symmetry could not be determined.
 Excited State  20:      Singlet-?Sym    9.8128 eV  126.35 nm  f=0.0096  <S**2>=0.000
      11 -> 14         0.19904
      11 -> 18        -0.10392
      11 -> 21         0.51368
      11 -> 23         0.32364
      11 -> 24        -0.14818

 Alpha  occ. eigenvalues --  -19.17924 -14.42701 -10.35831  -1.13224  -1.00388
 Alpha  occ. eigenvalues --   -0.71233  -0.64112  -0.56300  -0.49563  -0.49086
 Alpha  occ. eigenvalues --   -0.35291  -0.33707
 Alpha virt. eigenvalues --   -0.00005   0.02006   0.03480   0.04953   0.06515
 Alpha virt. eigenvalues --    0.07640   0.08118   0.09491   0.10447   0.11595
 Alpha virt. eigenvalues --    0.12495   0.13963   0.16981   0.17764   0.18601

 Mulliken atomic charges:
              1
     1  C   -0.010455
     2  N   -0.150385
     3  O   -0.519844
     4  H    0.122762
     5  H    0.084198
     6  H    0.473723
 Sum of Mulliken atomic charges =   0.00000

 Dipole moment (field-independent basis, Debye):
    X=              3.8883    Y=              0.9498    Z=              0.0007  Tot=              4.0027
 Quadrupole moment (field-independent basis, Debye-Ang):
   XX=            -18.3928   YY=            -15.5305   ZZ=            -19.1096
   XY=             -1.3008   XZ=              0.0011   YZ=             -0.0001

 Normal termination of Gaussian 09 at Tue Oct 22 21:53:21 2019.
