 Gaussian 09, Revision A.01,
 Gaussian 09:  EM64L-G09RevA.01  8-May-2009

 --------------------------------------------------------
 # cam-b3lyp/aug-cc-pvtz opt nosymm td(root=2,nstates=20)
 --------------------------------------------------------

 -----
 Title
 -----
 Symbolic Z-matrix:
 Charge =  0 Multiplicity = 1

 SCF Done:  E(RCAM-B3LYP) =  -169.887000866     A.U. after   11 cycles
 SCF Done:  E(RCAM-B3LYP) =  -169.887180910     A.U. after    9 cycles
 SCF Done:  E(RCAM-B3LYP) =  -169.887314104     A.U. after    8 cycles
 SCF Done:  E(RCAM-B3LYP) =  -169.887366134     A.U. after    7 cycles

 Excitation energies and oscillator strengths:

 Excited state symmetry could not be determined.
 Excited State   1:      Singlet-?Sym    5.4154 eV  228.95 nm  f=0.0006  <S**2>=0.000
      12 -> 16         0.55719
      12 -> 17        -0.40010
      12 -> 22         0.13123

 Excited state symmetry could not be determined.
 Excited State   2:      Singlet-?Sym    6.2434 eV  198.58 nm  f=0.0096  <S**2>=0.000
      11 -> 16        -0.10929
      12 -> 13         0.64195
      12 -> 15        -0.15954
      12 -> 18        -0.11148
 This state for optimization and/or second-order correction.
 Copying the excited state density for this state as the 1-particle RhoCI density.

 Excited state symmetry could not be determined.
 Excited State   3:      Singlet-?Sym    6.6035 eV  187.75 nm  f=0.0073  <S**2>=0.000
      11 -> 13         0.66499
      11 -> 18        -0.17801

 Excited state symmetry could not be determined.
 Excited State   4:      Singlet-?Sym    6.8164 eV  181.89 nm  f=0.0602  <S**2>=0.000
      12 -> 14         0.65384
      12 -> 20        -0.10493
      12 -> 21         0.15926

 Excited state symmetry could not be determined.
 Excited State   5:      Singlet-?Sym    7.2658 eV  170.64 nm  f=0.0242  <S**2>=0.000
      12 -> 13         0.14752
      12 -> 15         0.60395
      12 -> 18        -0.14398
      12 -> 19         0.23308
      12 -> 23         0.12626

 Excited state symmetry could not be determined.
 Excited State   6:      Singlet-?Sym    7.3797 eV  168.01 nm  f=0.0011  <S**2>=0.000
      11 -> 14         0.65299
      11 -> 21         0.22006

 Excited state symmetry could not be determined.
 Excited State   7:      Singlet-?Sym    7.6540 eV  161.99 nm  f=0.0104  <S**2>=0.000
      12 -> 16         0.41118
      12 -> 17         0.56267

 Excited state symmetry could not be determined.
 Excited State   8:      Singlet-?Sym    7.7955 eV  159.05 nm  f=0.2529  <S**2>=0.000
      11 -> 16         0.42046
      11 -> 17        -0.46090
      12 -> 13         0.19560
      12 -> 18         0.17772

 Excited state symmetry could not be determined.
 Excited State   9:      Singlet-?Sym    8.0195 eV  154.60 nm  f=0.0127  <S**2>=0.000
      11 -> 15         0.64555
      11 -> 19         0.15504
      11 -> 23         0.15842

 Excited state symmetry could not be determined.
 Excited State  10:      Singlet-?Sym    8.2318 eV  150.62 nm  f=0.0177  <S**2>=0.000
      12 -> 15        -0.25330
      12 -> 19         0.63150

 Excited state symmetry could not be determined.
 Excited State  11:      Singlet-?Sym    8.3799 eV  147.95 nm  f=0.0099  <S**2>=0.000
      11 -> 16         0.42392
      11 -> 17         0.50562
      12 -> 18         0.17550
      12 -> 20        -0.12548

 Excited state symmetry could not be determined.
 Excited State  12:      Singlet-?Sym    8.5731 eV  144.62 nm  f=0.0102  <S**2>=0.000
      11 -> 16         0.29391
      12 -> 14         0.11136
      12 -> 18        -0.42163
      12 -> 20         0.43278

 Excited state symmetry could not be determined.
 Excited State  13:      Singlet-?Sym    8.9385 eV  138.71 nm  f=0.0500  <S**2>=0.000
      11 -> 16        -0.10502
      12 -> 13         0.11796
      12 -> 14         0.10015
      12 -> 18         0.40964
      12 -> 20         0.45419
      12 -> 21        -0.21523
      12 -> 23         0.13065

 Excited state symmetry could not be determined.
 Excited State  14:      Singlet-?Sym    8.9708 eV  138.21 nm  f=0.0090  <S**2>=0.000
      11 -> 15        -0.14841
      11 -> 18        -0.17448
      11 -> 19         0.62611
      11 -> 24        -0.15180

 Excited state symmetry could not be determined.
 Excited State  15:      Singlet-?Sym    9.0618 eV  136.82 nm  f=0.0038  <S**2>=0.000
      11 -> 13         0.15503
      11 -> 18         0.56430
      11 -> 19         0.18401
      11 -> 20        -0.26278
      11 -> 24         0.12883

 Excited state symmetry could not be determined.
 Excited State  16:      Singlet-?Sym    9.1843 eV  135.00 nm  f=0.0224  <S**2>=0.000
      12 -> 14        -0.15497
      12 -> 18         0.13052
      12 -> 20         0.20948
      12 -> 21         0.60679
      12 -> 24         0.10101

 Excited state symmetry could not be determined.
 Excited State  17:      Singlet-?Sym    9.3145 eV  133.11 nm  f=0.0116  <S**2>=0.000
      11 -> 16         0.10301
      12 -> 21         0.15651
      12 -> 23         0.57412
      12 -> 24        -0.29832
      12 -> 26         0.10151

 Excited state symmetry could not be determined.
 Excited State  18:      Singlet-?Sym    9.3173 eV  133.07 nm  f=0.0022  <S**2>=0.000
      12 -> 17         0.12720
      12 -> 22         0.68062

 Excited state symmetry could not be determined.
 Excited State  19:      Singlet-?Sym    9.4369 eV  131.38 nm  f=0.0022  <S**2>=0.000
      11 -> 13         0.15414
      11 -> 18         0.17605
      11 -> 20         0.58651
      11 -> 21        -0.14138
      11 -> 23        -0.12556
      11 -> 24         0.11486

 Excited state symmetry could not be determined.
 Excited State  20:      Singlet-?Sym    9.6717 eV  128.19 nm  f=0.0012  <S**2>=0.000
      10 -> 16         0.46044
      10 -> 17        -0.32835
      10 -> 22         0.10689
      11 -> 20        -0.17190
      11 -> 21        -0.25934
      11 -> 23        -0.15340

 Optimization completed.
    -- Stationary point found.

                          Input orientation:
 ---------------------------------------------------------------------
 Center     Atomic      Atomic             Coordinates (Angstroms)
 Number     Number       Type             X           Y           Z
 ---------------------------------------------------------------------
      1          6           0       -0.103045    0.360369    0.001411
      2          7           0        1.063429   -0.173330   -0.002367
      3          8           0       -1.228829   -0.182309    0.001660
      4          1           0        1.204304   -1.175810   -0.006657
      5          1           0        1.892751    0.449271   -0.000719
      6          1           0       -0.170888    1.453857    0.006988
 ---------------------------------------------------------------------

 Alpha  occ. eigenvalues --  -19.16647 -14.44391 -10.35241  -1.11152  -1.02011
 Alpha  occ. eigenvalues --   -0.72246  -0.65044  -0.56917  -0.49386  -0.47397
 Alpha  occ. eigenvalues --   -0.35020  -0.32166
 Alpha virt. eigenvalues --   -0.00466   0.01816   0.03454   0.05374   0.06245
 Alpha virt. eigenvalues --    0.07526   0.08054   0.09240   0.10000   0.11600
 Alpha virt. eigenvalues --    0.12470   0.13543   0.16933   0.18021   0.18383

 Mulliken atomic charges:
              1
     1  C   -0.028345
     2  N   -0.131392
     3  O   -0.566173
     4  H    0.136912
     5  H    0.105757
     6  H    0.483241
 Sum of Mulliken atomic charges =   0.00000

 Dipole moment (field-independent basis, Debye):
    X=              4.6633    Y=              0.7378    Z=             -0.0045  Tot=              4.7213
 Quadrupole moment (field-independent basis, Debye-Ang):
   XX=            -18.3897   YY=            -15.5593   ZZ=            -19.0976
   XY=             -1.3488   XZ=             -0.0038   YZ=              0.0179

 Normal termination of Gaussian 09 at Sun Oct 27 07:20:30 2019.
