 Gaussian 09, Revision A.01,
 Gaussian 09:  EM64L-G09RevA.01  8-May-2009

 ----------------------------------------------------------------------
 # cam-b3lyp/aug-cc-pvtz opt nosymm td(root=4,nstates=20) int(grid=ultr
 afine)
 ----------------------------------------------------------------------

 -----
 Title
 -----
 Symbolic Z-matrix:
 Charge =  0 Multiplicity = 1

 SCF Done:  E(RCAM-B3LYP) =  -169.883834457     A.U. after   11 cycles
 SCF Done:  E(RCAM-B3LYP) =  -169.884336561     A.U. after    9 cycles
 SCF Done:  E(RCAM-B3LYP) =  -169.884795996     A.U. after    7 cycles
 SCF Done:  E(RCAM-B3LYP) =  -169.884960026     A.U. after    7 cycles

 Excitation energies and oscillator strengths:

 Excited state symmetry could not be determined.
 Excited State   1:      Singlet-?Sym    5.4055 eV  229.37 nm  f=0.0007  <S**2>=0.000
      12 -> 16         0.54581
      12 -> 17        -0.41265
      12 -> 22         0.13889

 Excited state symmetry could not be determined.
 Excited State   2:      Singlet-?Sym    6.2729 eV  197.65 nm  f=0.0088  <S**2>=0.000
      11 -> 16        -0.11035
      12 -> 13         0.64337
      12 -> 15         0.16189

 Excited state symmetry could not be determined.
 Excited State   3:      Singlet-?Sym    6.6073 eV  187.65 nm  f=0.0089  <S**2>=0.000
      11 -> 13         0.66406
      11 -> 18         0.16789

 Excited state symmetry could not be determined.
 Excited State   4:      Singlet-?Sym    6.6626 eV  186.09 nm  f=0.0622  <S**2>=0.000
      12 -> 14         0.64797
      12 -> 18         0.12994
      12 -> 21        -0.17527
 This state for optimization and/or second-order correction.
 Copying the excited state density for this state as the 1-particle RhoCI density.

 Excited state symmetry could not be determined.
 Excited State   5:      Singlet-?Sym    7.2395 eV  171.26 nm  f=0.0005  <S**2>=0.000
      11 -> 14         0.64705
      11 -> 21        -0.23452

 Excited state symmetry could not be determined.
 Excited State   6:      Singlet-?Sym    7.2438 eV  171.16 nm  f=0.0256  <S**2>=0.000
      12 -> 13        -0.14343
      12 -> 14         0.12369
      12 -> 15         0.59793
      12 -> 18        -0.17029
      12 -> 19        -0.21829
      12 -> 23        -0.12697

 Excited state symmetry could not be determined.
 Excited State   7:      Singlet-?Sym    7.6120 eV  162.88 nm  f=0.0108  <S**2>=0.000
      12 -> 16         0.42510
      12 -> 17         0.55226

 Excited state symmetry could not be determined.
 Excited State   8:      Singlet-?Sym    7.7419 eV  160.15 nm  f=0.2415  <S**2>=0.000
      11 -> 16         0.41758
      11 -> 17        -0.46588
      12 -> 13         0.19856
      12 -> 18        -0.17120

 Excited state symmetry could not be determined.
 Excited State   9:      Singlet-?Sym    7.9805 eV  155.36 nm  f=0.0121  <S**2>=0.000
      11 -> 15         0.64903
      11 -> 19        -0.14476
      11 -> 23        -0.16759

 Excited state symmetry could not be determined.
 Excited State  10:      Singlet-?Sym    8.1670 eV  151.81 nm  f=0.0205  <S**2>=0.000
      12 -> 15         0.24822
      12 -> 18         0.13451
      12 -> 19         0.61549

 Excited state symmetry could not be determined.
 Excited State  11:      Singlet-?Sym    8.3234 eV  148.96 nm  f=0.0121  <S**2>=0.000
      11 -> 16         0.41764
      11 -> 17         0.49287
      12 -> 18        -0.19640
      12 -> 20        -0.13541

 Excited state symmetry could not be determined.
 Excited State  12:      Singlet-?Sym    8.4728 eV  146.33 nm  f=0.0076  <S**2>=0.000
      11 -> 16         0.31668
      12 -> 14        -0.13691
      12 -> 18         0.44451
      12 -> 19        -0.12605
      12 -> 20         0.35753

 Excited state symmetry could not be determined.
 Excited State  13:      Singlet-?Sym    8.8756 eV  139.69 nm  f=0.0073  <S**2>=0.000
      11 -> 15         0.13399
      11 -> 18         0.31725
      11 -> 19         0.55705
      11 -> 24        -0.18019
      11 -> 30         0.10444

 Excited state symmetry could not be determined.
 Excited State  14:      Singlet-?Sym    8.9642 eV  138.31 nm  f=0.0419  <S**2>=0.000
      12 -> 13        -0.10950
      12 -> 14         0.11483
      12 -> 18         0.33449
      12 -> 20        -0.40337
      12 -> 21         0.36258
      12 -> 23        -0.18899

 Excited state symmetry could not be determined.
 Excited State  15:      Singlet-?Sym    8.9697 eV  138.23 nm  f=0.0027  <S**2>=0.000
      11 -> 13        -0.12813
      11 -> 18         0.50152
      11 -> 19        -0.32347
      11 -> 20         0.28300

 Excited state symmetry could not be determined.
 Excited State  16:      Singlet-?Sym    9.0185 eV  137.48 nm  f=0.0215  <S**2>=0.000
      12 -> 14         0.13977
      12 -> 18        -0.14082
      12 -> 19         0.13177
      12 -> 20         0.37961
      12 -> 21         0.50623
      12 -> 24         0.13658
      12 -> 26         0.10781

 Excited state symmetry could not be determined.
 Excited State  17:      Singlet-?Sym    9.2858 eV  133.52 nm  f=0.0023  <S**2>=0.000
      12 -> 17         0.13384
      12 -> 22         0.68214

 Excited state symmetry could not be determined.
 Excited State  18:      Singlet-?Sym    9.3580 eV  132.49 nm  f=0.0165  <S**2>=0.000
      12 -> 21         0.17607
      12 -> 23         0.47902
      12 -> 24        -0.42850
      12 -> 26         0.10585
      12 -> 27        -0.10114

 Excited state symmetry could not be determined.
 Excited State  19:      Singlet-?Sym    9.4487 eV  131.22 nm  f=0.0007  <S**2>=0.000
      11 -> 13         0.17515
      11 -> 18        -0.20098
      11 -> 20         0.56828
      11 -> 21        -0.18118
      11 -> 24         0.12839

 Excited state symmetry could not be determined.
 Excited State  20:      Singlet-?Sym    9.5835 eV  129.37 nm  f=0.0000  <S**2>=0.000
      10 -> 16         0.11420
      11 -> 14        -0.21478
      11 -> 19        -0.13830
      11 -> 20        -0.22208
      11 -> 21        -0.55662
      11 -> 23        -0.12396
      11 -> 26        -0.11103

 Optimization completed.
    -- Stationary point found.

                          Input orientation:
 ---------------------------------------------------------------------
 Center     Atomic      Atomic             Coordinates (Angstroms)
 Number     Number       Type             X           Y           Z
 ---------------------------------------------------------------------
      1          6           0       -0.086611    0.388138    0.000024
      2          7           0        1.064884   -0.171644    0.000101
      3          8           0       -1.180635   -0.198923   -0.000070
      4          1           0        1.208058   -1.209081    0.000104
      5          1           0        1.887186    0.408462    0.000157
      6          1           0       -0.235161    1.515095    0.000003
 ---------------------------------------------------------------------

 Alpha  occ. eigenvalues --  -19.16333 -14.44154 -10.35430  -1.11569  -1.01685
 Alpha  occ. eigenvalues --   -0.71447  -0.64985  -0.56747  -0.49475  -0.47143
 Alpha  occ. eigenvalues --   -0.34832  -0.32023
 Alpha virt. eigenvalues --   -0.00312   0.01727   0.03456   0.05341   0.06330
 Alpha virt. eigenvalues --    0.07505   0.08047   0.09278   0.09848   0.11673
 Alpha virt. eigenvalues --    0.12694   0.13445   0.17081   0.17617   0.18472

 Mulliken atomic charges:
              1
     1  C   -0.000618
     2  N   -0.135896
     3  O   -0.553853
     4  H    0.155085
     5  H    0.077745
     6  H    0.457538
 Sum of Mulliken atomic charges =   0.00000

 Dipole moment (field-independent basis, Debye):
    X=              4.5030    Y=              0.7449    Z=              0.0003  Tot=              4.5642
 Quadrupole moment (field-independent basis, Debye-Ang):
   XX=            -18.2472   YY=            -15.3836   ZZ=            -19.1349
   XY=             -1.7172   XZ=              0.0001   YZ=             -0.0001

 Normal termination of Gaussian 09 at Sun Oct 27 14:02:15 2019.
