 Gaussian 09, Revision A.01,
 Gaussian 09:  EM64L-G09RevA.01  8-May-2009

 ----------------------------------------------------------------------
 # cam-b3lyp/aug-cc-pvtz opt nosymm td(root=5,nstates=20) int(grid=ultr
 afine)
 ----------------------------------------------------------------------

 -----
 Title
 -----
 Symbolic Z-matrix:
 Charge =  0 Multiplicity = 1

 SCF Done:  E(RCAM-B3LYP) =  -169.889480888     A.U. after   11 cycles
 SCF Done:  E(RCAM-B3LYP) =  -169.890609472     A.U. after    9 cycles
 SCF Done:  E(RCAM-B3LYP) =  -169.891047385     A.U. after    8 cycles

 Excitation energies and oscillator strengths:

 Excited state symmetry could not be determined.
 Excited State   1:      Singlet-?Sym    5.4221 eV  228.67 nm  f=0.0005  <S**2>=0.000
      12 -> 16         0.63923
      12 -> 17        -0.26088
      12 -> 22         0.10790

 Excited state symmetry could not be determined.
 Excited State   2:      Singlet-?Sym    6.5056 eV  190.58 nm  f=0.0137  <S**2>=0.000
      11 -> 13         0.66103
      11 -> 18         0.12983
      11 -> 19        -0.12654
      11 -> 20        -0.11275

 Excited state symmetry could not be determined.
 Excited State   3:      Singlet-?Sym    6.5766 eV  188.52 nm  f=0.0028  <S**2>=0.000
      11 -> 16         0.21404
      11 -> 17        -0.11082
      12 -> 13         0.62004
      12 -> 15         0.14653
      12 -> 19        -0.12185

 Excited state symmetry could not be determined.
 Excited State   4:      Singlet-?Sym    7.0235 eV  176.53 nm  f=0.0613  <S**2>=0.000
      12 -> 14         0.65362
      12 -> 21        -0.17314

 Excited state symmetry could not be determined.
 Excited State   5:      Singlet-?Sym    7.1749 eV  172.80 nm  f=0.0002  <S**2>=0.000
      11 -> 14         0.63809
      11 -> 15         0.12758
      11 -> 21        -0.22972
 This state for optimization and/or second-order correction.
 Copying the excited state density for this state as the 1-particle RhoCI density.

 Excited state symmetry could not be determined.
 Excited State   6:      Singlet-?Sym    7.4010 eV  167.52 nm  f=0.1653  <S**2>=0.000
      11 -> 16         0.45947
      11 -> 17        -0.24667
      12 -> 13        -0.12182
      12 -> 14        -0.12663
      12 -> 15        -0.35214
      12 -> 18         0.20047
      12 -> 19         0.11467

 Excited state symmetry could not be determined.
 Excited State   7:      Singlet-?Sym    7.6283 eV  162.53 nm  f=0.1184  <S**2>=0.000
      11 -> 16         0.31116
      11 -> 17        -0.16819
      12 -> 13        -0.27725
      12 -> 15         0.49105
      12 -> 18        -0.14234
      12 -> 19        -0.11650

 Excited state symmetry could not be determined.
 Excited State   8:      Singlet-?Sym    7.8995 eV  156.95 nm  f=0.0076  <S**2>=0.000
      11 -> 14        -0.13694
      11 -> 15         0.64212
      11 -> 19        -0.10655
      11 -> 23        -0.15294
      11 -> 24        -0.10520

 Excited state symmetry could not be determined.
 Excited State   9:      Singlet-?Sym    7.9644 eV  155.67 nm  f=0.0056  <S**2>=0.000
      12 -> 16         0.26528
      12 -> 17         0.64446

 Excited state symmetry could not be determined.
 Excited State  10:      Singlet-?Sym    8.2887 eV  149.58 nm  f=0.0118  <S**2>=0.000
      11 -> 16         0.31720
      11 -> 17         0.62050

 Excited state symmetry could not be determined.
 Excited State  11:      Singlet-?Sym    8.4610 eV  146.54 nm  f=0.0110  <S**2>=0.000
      12 -> 15         0.27667
      12 -> 18         0.40492
      12 -> 19         0.46786
      12 -> 24        -0.10910

 Excited state symmetry could not be determined.
 Excited State  12:      Singlet-?Sym    8.7077 eV  142.38 nm  f=0.0047  <S**2>=0.000
      11 -> 15         0.10205
      11 -> 18         0.54151
      11 -> 19         0.33398
      11 -> 24        -0.21828
      11 -> 29         0.11048

 Excited state symmetry could not be determined.
 Excited State  13:      Singlet-?Sym    8.7622 eV  141.50 nm  f=0.0003  <S**2>=0.000
      11 -> 16        -0.10389
      12 -> 14        -0.13255
      12 -> 18         0.42017
      12 -> 19        -0.39551
      12 -> 20         0.33691

 Excited state symmetry could not be determined.
 Excited State  14:      Singlet-?Sym    8.9307 eV  138.83 nm  f=0.0027  <S**2>=0.000
      11 -> 13         0.13570
      11 -> 18        -0.30589
      11 -> 19         0.54436
      11 -> 20        -0.20258

 Excited state symmetry could not be determined.
 Excited State  15:      Singlet-?Sym    9.3199 eV  133.03 nm  f=0.0495  <S**2>=0.000
      12 -> 13         0.13006
      12 -> 18        -0.22593
      12 -> 19         0.20151
      12 -> 20         0.57251
      12 -> 21        -0.12182
      12 -> 23         0.11094
      12 -> 24         0.11540

 Excited state symmetry could not be determined.
 Excited State  16:      Singlet-?Sym    9.3724 eV  132.29 nm  f=0.0027  <S**2>=0.000
      11 -> 13         0.16951
      11 -> 19         0.14460
      11 -> 20         0.61817
      11 -> 23        -0.14421
      11 -> 24         0.10066

 Excited state symmetry could not be determined.
 Excited State  17:      Singlet-?Sym    9.3869 eV  132.08 nm  f=0.0161  <S**2>=0.000
      12 -> 14         0.18645
      12 -> 19         0.10961
      12 -> 20         0.12455
      12 -> 21         0.62327
      12 -> 23        -0.13075
      12 -> 24         0.10354

 Excited state symmetry could not be determined.
 Excited State  18:      Singlet-?Sym    9.5186 eV  130.25 nm  f=0.0010  <S**2>=0.000
      11 -> 14         0.22867
      11 -> 19         0.11988
      11 -> 20         0.12206
      11 -> 21         0.56915
      11 -> 23         0.22510

 Excited state symmetry could not be determined.
 Excited State  19:      Singlet-?Sym    9.5393 eV  129.97 nm  f=0.0144  <S**2>=0.000
      12 -> 21         0.16693
      12 -> 23         0.54972
      12 -> 24        -0.34521
      12 -> 26         0.13876

 Excited state symmetry could not be determined.
 Excited State  20:      Singlet-?Sym    9.6323 eV  128.72 nm  f=0.0027  <S**2>=0.000
      12 -> 22         0.67911

 Optimization completed.
    -- Stationary point found.

                          Input orientation:
 ---------------------------------------------------------------------
 Center     Atomic      Atomic             Coordinates (Angstroms)
 Number     Number       Type             X           Y           Z
 ---------------------------------------------------------------------
      1          6           0       -0.147138    0.423617   -0.000025
      2          7           0        1.048686   -0.165881   -0.000350
      3          8           0       -1.152678   -0.282691   -0.000024
      4          1           0        1.180797   -1.215893    0.000311
      5          1           0        1.881340    0.429026    0.000316
      6          1           0       -0.153286    1.543871    0.000088
 ---------------------------------------------------------------------

 Alpha  occ. eigenvalues --  -19.17209 -14.43250 -10.35992  -1.12132  -0.99459
 Alpha  occ. eigenvalues --   -0.70793  -0.63137  -0.56167  -0.48719  -0.48475
 Alpha  occ. eigenvalues --   -0.34532  -0.33209
 Alpha virt. eigenvalues --   -0.00101   0.01788   0.03468   0.04547   0.06427
 Alpha virt. eigenvalues --    0.07489   0.08079   0.09429   0.10036   0.11700
 Alpha virt. eigenvalues --    0.12517   0.13479   0.16953   0.17494   0.18603

 Mulliken atomic charges:
              1
     1  C   -0.012083
     2  N   -0.177150
     3  O   -0.533889
     4  H    0.164163
     5  H    0.084142
     6  H    0.474817
 Sum of Mulliken atomic charges =   0.00000

 Dipole moment (field-independent basis, Debye):
    X=              4.0040    Y=              1.0891    Z=              0.0019  Tot=              4.1495
 Quadrupole moment (field-independent basis, Debye-Ang):
   XX=            -18.5830   YY=            -15.0496   ZZ=            -19.2301
   XY=             -1.6416   XZ=              0.0031   YZ=             -0.0007

 Normal termination of Gaussian 09 at Sun Oct 27 15:10:01 2019.
