 Gaussian 09, Revision A.01,
 Gaussian 09:  EM64L-G09RevA.01  8-May-2009

 ----------------------------------------------------------------------
 # cam-b3lyp/aug-cc-pvtz opt nosymm td(root=6,nstates=20) int(grid=ultr
 afine)
 ----------------------------------------------------------------------

 -----
 Title
 -----
 Symbolic Z-matrix:
 Charge =  0 Multiplicity = 1

 SCF Done:  E(RCAM-B3LYP) =  -169.883822847     A.U. after   11 cycles
 SCF Done:  E(RCAM-B3LYP) =  -169.889787256     A.U. after   10 cycles
 SCF Done:  E(RCAM-B3LYP) =  -169.890866778     A.U. after    8 cycles
 SCF Done:  E(RCAM-B3LYP) =  -169.891619361     A.U. after    9 cycles
 SCF Done:  E(RCAM-B3LYP) =  -169.891688476     A.U. after    7 cycles
 SCF Done:  E(RCAM-B3LYP) =  -169.891723375     A.U. after    8 cycles

 Excitation energies and oscillator strengths:

 Excited state symmetry could not be determined.
 Excited State   1:      Singlet-?Sym    5.4170 eV  228.88 nm  f=0.0005  <S**2>=0.000
      12 -> 16         0.59494
      12 -> 17        -0.34431
      12 -> 22         0.12490

 Excited state symmetry could not be determined.
 Excited State   2:      Singlet-?Sym    6.3912 eV  193.99 nm  f=0.0076  <S**2>=0.000
      11 -> 16        -0.13180
      12 -> 13         0.63729
      12 -> 15         0.16925
      12 -> 19        -0.10367

 Excited state symmetry could not be determined.
 Excited State   3:      Singlet-?Sym    6.6370 eV  186.81 nm  f=0.0094  <S**2>=0.000
      11 -> 13         0.66529
      11 -> 18        -0.15614

 Excited state symmetry could not be determined.
 Excited State   4:      Singlet-?Sym    6.9054 eV  179.55 nm  f=0.0588  <S**2>=0.000
      12 -> 14         0.65371
      12 -> 18        -0.10687
      12 -> 21        -0.16487

 Excited state symmetry could not be determined.
 Excited State   5:      Singlet-?Sym    7.3835 eV  167.92 nm  f=0.0008  <S**2>=0.000
      11 -> 14         0.64928
      11 -> 15         0.10770
      11 -> 21        -0.21874

 Excited state symmetry could not be determined.
 Excited State   6:      Singlet-?Sym    7.3488 eV  168.71 nm  f=0.0262  <S**2>=0.000
      12 -> 13        -0.14249
      12 -> 15         0.59633
      12 -> 18         0.19166
      12 -> 19        -0.20267
      12 -> 23        -0.12403
 This state for optimization and/or second-order correction.
 Copying the excited state density for this state as the 1-particle RhoCI density.

 Excited state symmetry could not be determined.
 Excited State   7:      Singlet-?Sym    7.7216 eV  160.57 nm  f=0.2559  <S**2>=0.000
      11 -> 16         0.48267
      11 -> 17        -0.40253
      12 -> 13         0.21992
      12 -> 15        -0.10988
      12 -> 18         0.11970

 Excited state symmetry could not be determined.
 Excited State   8:      Singlet-?Sym    7.7460 eV  160.06 nm  f=0.0088  <S**2>=0.000
      12 -> 16         0.35304
      12 -> 17         0.60076

 Excited state symmetry could not be determined.
 Excited State   9:      Singlet-?Sym    7.9904 eV  155.17 nm  f=0.0112  <S**2>=0.000
      11 -> 14        -0.11343
      11 -> 15         0.64454
      11 -> 19        -0.13040
      11 -> 23        -0.16288

 Excited state symmetry could not be determined.
 Excited State  10:      Singlet-?Sym    8.3337 eV  148.77 nm  f=0.0154  <S**2>=0.000
      11 -> 17        -0.19665
      12 -> 15         0.24953
      12 -> 18        -0.22418
      12 -> 19         0.56185

 Excited state symmetry could not be determined.
 Excited State  11:      Singlet-?Sym    8.3647 eV  148.22 nm  f=0.0081  <S**2>=0.000
      11 -> 16         0.39831
      11 -> 17         0.51968
      12 -> 19         0.21516

 Excited state symmetry could not be determined.
 Excited State  12:      Singlet-?Sym    8.6049 eV  144.09 nm  f=0.0046  <S**2>=0.000
      11 -> 16         0.20782
      12 -> 14        -0.12865
      12 -> 18        -0.47582
      12 -> 19        -0.19269
      12 -> 20         0.38577

 Excited state symmetry could not be determined.
 Excited State  13:      Singlet-?Sym    8.9417 eV  138.66 nm  f=0.0106  <S**2>=0.000
      11 -> 15         0.11684
      11 -> 18        -0.40753
      11 -> 19         0.50111
      11 -> 24        -0.18525

 Excited state symmetry could not be determined.
 Excited State  14:      Singlet-?Sym    9.0342 eV  137.24 nm  f=0.0020  <S**2>=0.000
      11 -> 13        -0.13159
      11 -> 18        -0.44422
      11 -> 19        -0.41318
      11 -> 20         0.26267

 Excited state symmetry could not be determined.
 Excited State  15:      Singlet-?Sym    9.0957 eV  136.31 nm  f=0.0406  <S**2>=0.000
      12 -> 13        -0.12033
      12 -> 18        -0.33621
      12 -> 20        -0.48439
      12 -> 21         0.24088
      12 -> 23        -0.18674

 Excited state symmetry could not be determined.
 Excited State  16:      Singlet-?Sym    9.2846 eV  133.54 nm  f=0.0219  <S**2>=0.000
      12 -> 14         0.15583
      12 -> 19         0.11747
      12 -> 20         0.25927
      12 -> 21         0.59021
      12 -> 24         0.11189

 Excited state symmetry could not be determined.
 Excited State  17:      Singlet-?Sym    9.4132 eV  131.71 nm  f=0.0024  <S**2>=0.000
      12 -> 17         0.11448
      12 -> 22         0.67735

 Excited state symmetry could not be determined.
 Excited State  18:      Singlet-?Sym    9.4176 eV  131.65 nm  f=0.0174  <S**2>=0.000
      12 -> 21         0.17240
      12 -> 23         0.52945
      12 -> 24        -0.36613
      12 -> 26         0.10896

 Excited state symmetry could not be determined.
 Excited State  19:      Singlet-?Sym    9.4679 eV  130.95 nm  f=0.0013  <S**2>=0.000
      11 -> 13         0.17191
      11 -> 18         0.17070
      11 -> 20         0.58082
      11 -> 21        -0.13248
      11 -> 23        -0.11412
      11 -> 24         0.12055
      12 -> 22        -0.10006

 Excited state symmetry could not be determined.
 Excited State  20:      Singlet-?Sym    9.6745 eV  128.16 nm  f=0.0027  <S**2>=0.000
      10 -> 16         0.43526
      10 -> 17        -0.24892
      11 -> 14        -0.11422
      11 -> 20        -0.17734
      11 -> 21        -0.32895
      11 -> 23        -0.19478
      11 -> 24         0.11297

 Optimization completed.
    -- Stationary point found.

                          Input orientation:
 ---------------------------------------------------------------------
 Center     Atomic      Atomic             Coordinates (Angstroms)
 Number     Number       Type             X           Y           Z
 ---------------------------------------------------------------------
      1          6           0       -0.100100    0.389323    0.000458
      2          7           0        1.071469   -0.163042    0.000261
      3          8           0       -1.179746   -0.223607   -0.000335
      4          1           0        1.160268   -1.167971    0.000168
      5          1           0        1.903872    0.416192    0.000072
      6          1           0       -0.198042    1.481155   -0.000307
 ---------------------------------------------------------------------

 Alpha  occ. eigenvalues --  -19.16671 -14.43734 -10.35291  -1.11619  -1.01503
 Alpha  occ. eigenvalues --   -0.71854  -0.65201  -0.57135  -0.49243  -0.47708
 Alpha  occ. eigenvalues --   -0.34906  -0.32483
 Alpha virt. eigenvalues --   -0.00256   0.01904   0.03450   0.05125   0.06307
 Alpha virt. eigenvalues --    0.07628   0.08126   0.09331   0.10174   0.11620
 Alpha virt. eigenvalues --    0.12516   0.13687   0.17041   0.17856   0.18570

 Mulliken atomic charges:
              1
     1  C   -0.015513
     2  N   -0.127714
     3  O   -0.558867
     4  H    0.126453
     5  H    0.084790
     6  H    0.490851
 Sum of Mulliken atomic charges =   0.00000

 Dipole moment (field-independent basis, Debye):
    X=              4.3954    Y=              0.9089    Z=              0.0007  Tot=              4.4884
 Quadrupole moment (field-independent basis, Debye-Ang):
   XX=            -18.3099   YY=            -15.4526   ZZ=            -19.0776
   XY=             -1.4558   XZ=             -0.0015   YZ=             -0.0007

 Normal termination of Gaussian 09 at Sun Oct 27 17:18:17 2019.
