 Gaussian 09, Revision A.01,
 Gaussian 09:  EM64L-G09RevA.01  8-May-2009

 ----------------------------------------------------------------------
 # cam-b3lyp/aug-cc-pvtz opt nosymm td(root=8,nstates=20) int(grid=ultr
 afine)
 ----------------------------------------------------------------------

 -----
 Title
 -----
 Symbolic Z-matrix:
 Charge =  0 Multiplicity = 1

 SCF Done:  E(RCAM-B3LYP) =  -169.891973521     A.U. after   11 cycles
 SCF Done:  E(RCAM-B3LYP) =  -169.892698244     A.U. after    9 cycles
 SCF Done:  E(RCAM-B3LYP) =  -169.892965952     A.U. after    7 cycles
 SCF Done:  E(RCAM-B3LYP) =  -169.893128589     A.U. after    8 cycles
 SCF Done:  E(RCAM-B3LYP) =  -169.893022039     A.U. after    8 cycles

 Excitation energies and oscillator strengths:

 Excited state symmetry could not be determined.
 Excited State   1:      Singlet-?Sym    5.3642 eV  231.13 nm  f=0.0004  <S**2>=0.000
      12 -> 16         0.65600
      12 -> 17        -0.22312

 Excited state symmetry could not be determined.
 Excited State   2:      Singlet-?Sym    6.5277 eV  189.94 nm  f=0.0153  <S**2>=0.000
      11 -> 13         0.66223
      11 -> 18         0.11303
      11 -> 19        -0.13029
      11 -> 20        -0.12367

 Excited state symmetry could not be determined.
 Excited State   3:      Singlet-?Sym    6.6675 eV  185.95 nm  f=0.0001  <S**2>=0.000
      11 -> 16         0.27788
      11 -> 17        -0.12144
      12 -> 13         0.59074
      12 -> 15         0.15426
      12 -> 19        -0.12361

 Excited state symmetry could not be determined.
 Excited State   4:      Singlet-?Sym    7.1663 eV  173.01 nm  f=0.0870  <S**2>=0.000
      11 -> 16         0.28445
      11 -> 17        -0.11393
      12 -> 13        -0.11713
      12 -> 14         0.56867
      12 -> 18         0.12679
      12 -> 21        -0.15697

 Excited state symmetry could not be determined.
 Excited State   5:      Singlet-?Sym    7.3139 eV  169.52 nm  f=0.0003  <S**2>=0.000
      11 -> 14         0.62960
      11 -> 15         0.18817
      11 -> 21        -0.21012

 Excited state symmetry could not be determined.
 Excited State   6:      Singlet-?Sym    7.3714 eV  168.20 nm  f=0.1791  <S**2>=0.000
      11 -> 16         0.44786
      11 -> 17        -0.20385
      12 -> 13        -0.19313
      12 -> 14        -0.34532
      12 -> 15        -0.24510
      12 -> 19         0.12421

 Excited state symmetry could not be determined.
 Excited State   7:      Singlet-?Sym    7.6663 eV  161.73 nm  f=0.0627  <S**2>=0.000
      11 -> 16         0.19419
      12 -> 13        -0.27499
      12 -> 15         0.55309
      12 -> 18        -0.18340
      12 -> 19        -0.11845

 Excited state symmetry could not be determined.
 Excited State   8:      Singlet-?Sym    7.8440 eV  158.06 nm  f=0.0052  <S**2>=0.000
      11 -> 14        -0.20116
      11 -> 15         0.62878
      11 -> 23        -0.16464
 This state for optimization and/or second-order correction.
 Copying the excited state density for this state as the 1-particle RhoCI density.

 Excited state symmetry could not be determined.
 Excited State   9:      Singlet-?Sym    8.0585 eV  153.86 nm  f=0.0045  <S**2>=0.000
      12 -> 16         0.22525
      12 -> 17         0.65952

 Excited state symmetry could not be determined.
 Excited State  10:      Singlet-?Sym    8.2860 eV  149.63 nm  f=0.0135  <S**2>=0.000
      11 -> 16         0.27357
      11 -> 17         0.64148

 Excited state symmetry could not be determined.
 Excited State  11:      Singlet-?Sym    8.5873 eV  144.38 nm  f=0.0090  <S**2>=0.000
      12 -> 15         0.26357
      12 -> 18         0.48248
      12 -> 19         0.39927
      12 -> 24        -0.10544
      12 -> 29         0.10268

 Excited state symmetry could not be determined.
 Excited State  12:      Singlet-?Sym    8.7459 eV  141.76 nm  f=0.0110  <S**2>=0.000
      11 -> 18         0.59305
      11 -> 19         0.25694
      11 -> 24        -0.20969
      11 -> 29         0.11140

 Excited state symmetry could not be determined.
 Excited State  13:      Singlet-?Sym    8.8201 eV  140.57 nm  f=0.0011  <S**2>=0.000
      12 -> 14         0.13498
      12 -> 18        -0.35797
      12 -> 19         0.46987
      12 -> 20        -0.32255

 Excited state symmetry could not be determined.
 Excited State  14:      Singlet-?Sym    8.9416 eV  138.66 nm  f=0.0019  <S**2>=0.000
      11 -> 13         0.11461
      11 -> 15         0.10653
      11 -> 18        -0.21694
      11 -> 19         0.59036
      11 -> 20        -0.21688

 Excited state symmetry could not be determined.
 Excited State  15:      Singlet-?Sym    9.3463 eV  132.66 nm  f=0.0008  <S**2>=0.000
      11 -> 13         0.18638
      11 -> 19         0.15473
      11 -> 20         0.60764
      11 -> 23        -0.13998
      11 -> 24         0.11034

 Excited state symmetry could not be determined.
 Excited State  16:      Singlet-?Sym    9.4387 eV  131.36 nm  f=0.0332  <S**2>=0.000
      12 -> 13         0.12854
      12 -> 18        -0.20881
      12 -> 19         0.16964
      12 -> 20         0.54708
      12 -> 21        -0.17414
      12 -> 23         0.23268

 Excited state symmetry could not be determined.
 Excited State  17:      Singlet-?Sym    9.6045 eV  129.09 nm  f=0.0247  <S**2>=0.000
      12 -> 14         0.17290
      12 -> 19         0.13113
      12 -> 20         0.20816
      12 -> 21         0.58965
      12 -> 23        -0.13115
      12 -> 24         0.15482

 Excited state symmetry could not be determined.
 Excited State  18:      Singlet-?Sym    9.6237 eV  128.83 nm  f=0.0071  <S**2>=0.000
       9 -> 16         0.18064
      11 -> 14         0.16893
      11 -> 20         0.13198
      11 -> 21         0.47016
      11 -> 23         0.35521
      11 -> 24        -0.15407

 Excited state symmetry could not be determined.
 Excited State  19:      Singlet-?Sym    9.6410 eV  128.60 nm  f=0.0201  <S**2>=0.000
      12 -> 21         0.24286
      12 -> 23         0.50032
      12 -> 24        -0.35777
      12 -> 26         0.12527

 Excited state symmetry could not be determined.
 Excited State  20:      Singlet-?Sym    9.7123 eV  127.66 nm  f=0.0023  <S**2>=0.000
       9 -> 16         0.16562
      11 -> 21        -0.16950
      12 -> 22         0.63716

 Optimization completed.
    -- Stationary point found.

                          Input orientation:
 ---------------------------------------------------------------------
 Center     Atomic      Atomic             Coordinates (Angstroms)
 Number     Number       Type             X           Y           Z
 ---------------------------------------------------------------------
      1          6           0       -0.148109    0.440827    0.000043
      2          7           0        1.076749   -0.133173    0.000064
      3          8           0       -1.114697   -0.317698   -0.000055
      4          1           0        1.087517   -1.152530    0.000090
      5          1           0        1.967662    0.372351    0.000189
      6          1           0       -0.211400    1.522271   -0.000014
 ---------------------------------------------------------------------

 Alpha  occ. eigenvalues --  -19.17481 -14.42690 -10.35985  -1.12385  -0.98986
 Alpha  occ. eigenvalues --   -0.71218  -0.63676  -0.56211  -0.48982  -0.48547
 Alpha  occ. eigenvalues --   -0.34462  -0.33518
 Alpha virt. eigenvalues --    0.00013   0.02016   0.03463   0.04191   0.06436
 Alpha virt. eigenvalues --    0.07536   0.08227   0.09446   0.10464   0.11650
 Alpha virt. eigenvalues --    0.12369   0.14003   0.17071   0.17577   0.18689

 Mulliken atomic charges:
              1
     1  C   -0.023808
     2  N   -0.173466
     3  O   -0.539975
     4  H    0.134407
     5  H    0.095488
     6  H    0.507354
 Sum of Mulliken atomic charges =   0.00000

 Dipole moment (field-independent basis, Debye):
    X=              3.7749    Y=              1.2960    Z=              0.0004  Tot=              3.9912
 Quadrupole moment (field-independent basis, Debye-Ang):
   XX=            -18.2034   YY=            -15.2856   ZZ=            -19.1868
   XY=             -1.5448   XZ=              0.0004   YZ=             -0.0001

 Normal termination of Gaussian 09 at Sun Oct 27 19:10:03 2019.
