 Gaussian 09, Revision A.01,
 Gaussian 09:  EM64L-G09RevA.01  8-May-2009

 -----------------------------------------------------------------
 # pbepbe/6-31G** opt(tight) Freq=(savenormalmodes,raman) SCRF=PCM
 -----------------------------------------------------------------

 -----
 Title
 -----
 Symbolic Z-matrix:
 Charge =  0 Multiplicity = 1

 SCF Done:  E(RPBE-PBE) =  -339.424611588     A.U. after   12 cycles
 SCF Done:  E(RPBE-PBE) =  -339.433417450     A.U. after   11 cycles
 SCF Done:  E(RPBE-PBE) =  -339.435811287     A.U. after   11 cycles
 SCF Done:  E(RPBE-PBE) =  -339.442994977     A.U. after   12 cycles
 SCF Done:  E(RPBE-PBE) =  -339.446783171     A.U. after   10 cycles
 SCF Done:  E(RPBE-PBE) =  -339.450014860     A.U. after   12 cycles
 SCF Done:  E(RPBE-PBE) =  -339.450222950     A.U. after   12 cycles
 SCF Done:  E(RPBE-PBE) =  -339.450649791     A.U. after   10 cycles
 SCF Done:  E(RPBE-PBE) =  -339.450756438     A.U. after   12 cycles
 SCF Done:  E(RPBE-PBE) =  -339.450785112     A.U. after   13 cycles
 SCF Done:  E(RPBE-PBE) =  -339.450787798     A.U. after   13 cycles
 SCF Done:  E(RPBE-PBE) =  -339.450788610     A.U. after   13 cycles
 SCF Done:  E(RPBE-PBE) =  -339.450788732     A.U. after    7 cycles
 SCF Done:  E(RPBE-PBE) =  -339.450788751     A.U. after    7 cycles
 SCF Done:  E(RPBE-PBE) =  -339.450788754     A.U. after    6 cycles
 Optimization completed.
    -- Stationary point found.
 Normal termination of Gaussian 09 at Thu Nov  7 16:17:15 2019.

 ----------------------------------------------------------------------
 #N Geom=AllCheck Guess=TCheck SCRF=Check GenChk RPBEPBE/6-31G(d,p) Fre
 q
 ----------------------------------------------------------------------

 Title
 -----
 Redundant internal coordinates taken from checkpoint file:
 freq.chk
 Charge =  0 Multiplicity = 1

                         Standard orientation:
 ---------------------------------------------------------------------
 Center     Atomic      Atomic             Coordinates (Angstroms)
 Number     Number       Type             X           Y           Z
 ---------------------------------------------------------------------
      1          6           0       -2.025022   -0.106380   -0.000118
      2          7           0       -1.430390    1.098523   -0.000097
      3          8           0       -1.435793   -1.207854   -0.000074
      4          1           0       -0.392539    1.181354   -0.000040
      5          1           0       -2.002209    1.938928   -0.000117
      6          1           0       -3.136712   -0.056939   -0.000158
      7          6           0        2.025023    0.106375    0.000125
      8          7           0        1.430377   -1.098520    0.000122
      9          8           0        1.435807    1.207856    0.000035
     10          1           0        0.392524   -1.181342    0.000061
     11          1           0        3.136714    0.056921    0.000169
     12          1           0        2.002188   -1.938932    0.000174
 ---------------------------------------------------------------------

 SCF Done:  E(RPBE-PBE) =  -339.450788754     A.U. after    1 cycles

 The electronic state is 1-A.
 Alpha  occ. eigenvalues --  -18.75328 -18.75328 -14.02277 -14.02277  -9.99516
 Alpha  occ. eigenvalues --   -9.99516  -0.94124  -0.93679  -0.82184  -0.81677
 Alpha  occ. eigenvalues --   -0.56408  -0.54525  -0.49218  -0.48335  -0.44490
 Alpha  occ. eigenvalues --   -0.40060  -0.37255  -0.35629  -0.35104  -0.35066
 Alpha  occ. eigenvalues --   -0.23504  -0.22796  -0.22731  -0.20984
 Alpha virt. eigenvalues --   -0.01681  -0.01019   0.07542   0.07951   0.11166
 Alpha virt. eigenvalues --    0.12884   0.15796   0.19725   0.23901   0.28697
 Alpha virt. eigenvalues --    0.31035   0.34687   0.48658   0.49223   0.50582

 Mulliken atomic charges:
              1
     1  C    0.336914
     2  N   -0.559433
     3  O   -0.493240
     4  H    0.305454
     5  H    0.299160
     6  H    0.111148
     7  C    0.336912
     8  N   -0.559434
     9  O   -0.493241
    10  H    0.305456
    11  H    0.111146
    12  H    0.299158
 Sum of Mulliken atomic charges =   0.00000

 Dipole moment (field-independent basis, Debye):
    X=             -0.0001    Y=              0.0000    Z=              0.0002  Tot=              0.0002
 Quadrupole moment (field-independent basis, Debye-Ang):
   XX=            -24.5426   YY=            -33.9559   ZZ=            -36.8137
   XY=            -13.0847   XZ=              0.0009   YZ=             -0.0007

  Exact polarizability:  66.373  -5.530  70.498   0.002  -0.001  22.426
 Approx polarizability:  77.516  -7.541 125.799   0.003  -0.003  29.612

                     1                      2                      3
                     A                      A                      A
 Frequencies --    54.6778               128.8833               161.8346
 Red. masses --     5.6367                 2.0950                 6.0708
 Frc consts  --     0.0099                 0.0205                 0.0937
 IR Inten    --    34.7982                62.0023                 0.0000
 Raman Activ --     0.0000                 0.0000                 6.2425

                     4                      5                      6
                     A                      A                      A
 Frequencies --   180.1741               181.7795               217.2082
 Red. masses --     2.3601                 8.0962                 4.4111
 Frc consts  --     0.0451                 0.1576                 0.1226
 IR Inten    --     0.0000                 0.0000               138.1768
 Raman Activ --     6.4291                 0.3758                 0.0000

                     7                      8                      9
                     A                      A                      A
 Frequencies --   461.1357               489.2080               602.9654
 Red. masses --     1.1230                 1.1805                 2.9279
 Frc consts  --     0.1407                 0.1665                 0.6272
 IR Inten    --   347.3798                 0.0000                 0.0000
 Raman Activ --     0.0000                 0.7502                 7.2315

                    10                     11                     12
                     A                      A                      A
 Frequencies --   638.3495               829.0696               836.9975
 Red. masses --     3.2560                 1.1464                 1.3060
 Frc consts  --     0.7817                 0.4643                 0.5391
 IR Inten    --    21.2370                 0.0000               116.9567
 Raman Activ --     0.0000                 1.0296                 0.0000

                    13                     14                     15
                     A                      A                      A
 Frequencies --  1012.1585              1027.1796              1073.5033
 Red. masses --     1.4397                 1.3338                 1.4878
 Frc consts  --     0.8690                 0.8291                 1.0102
 IR Inten    --     0.0000                27.4195                 4.4413
 Raman Activ --     9.4126                 0.0000                 0.0000

                    16                     17                     18
                     A                      A                      A
 Frequencies --  1085.6534              1313.7149              1330.9825
 Red. masses --     1.5260                 2.8325                 2.4680
 Frc consts  --     1.0597                 2.8802                 2.5760
 IR Inten    --     0.0000               176.3963                 0.0000
 Raman Activ --    19.7861                 0.0000                 9.6223

                    19                     20                     21
                     A                      A                      A
 Frequencies --  1383.1399              1383.8361              1589.3367
 Red. masses --     1.2603                 1.3398                 1.4815
 Frc consts  --     1.4205                 1.5117                 2.2048
 IR Inten    --    71.0560                 0.0000                 0.0000
 Raman Activ --     0.0000                11.1306                42.0239

                    22                     23                     24
                     A                      A                      A
 Frequencies --  1596.8317              1705.8064              1718.2437
 Red. masses --     1.2042                 3.0515                 6.0069
 Frc consts  --     1.8091                 5.2315                10.4490
 IR Inten    --    71.5882                 0.0000              1085.7927
 Raman Activ --     0.0000                19.7375                 0.0000

                    25                     26                     27
                     A                      A                      A
 Frequencies --  2923.1449              2929.6526              3113.1644
 Red. masses --     1.0873                 1.0855                 1.0754
 Frc consts  --     5.4742                 5.4895                 6.1406
 IR Inten    --   522.4086                 0.0000                 0.0002
 Raman Activ --     0.0000               256.4580               757.4245

                    28                     29                     30
                     A                      A                      A
 Frequencies --  3154.9276              3589.6341              3589.6507
 Red. masses --     1.0743                 1.0854                 1.0852
 Frc consts  --     6.3001                 8.2404                 8.2386
 IR Inten    --  1892.6084                 1.0944               223.9073
 Raman Activ --     0.0001               198.3027                 0.9695

 - Thermochemistry -
 -------------------
 Temperature   298.150 Kelvin.  Pressure   1.00000 Atm.
 Atom     1 has atomic number  6 and mass  12.00000

 Molecular mass:    90.04293 amu.
 Principal axes and moments of inertia in atomic units:
                           1         2         3
     Eigenvalues --   323.92741 893.891111217.81852
           X            0.99866  -0.05171  -0.00006
           Y            0.05171   0.99866   0.00002
           Z            0.00006  -0.00003   1.00000
 This molecule is an asymmetric top.
 Rotational symmetry number  1.
 Rotational temperatures (Kelvin)      0.26739     0.09690     0.07112
 Rotational constants (GHZ):           5.57144     2.01897     1.48195
 Zero-point vibrational energy     241064.5 (Joules/Mol)
                                   57.61581 (Kcal/Mol)
 Warning -- explicit consideration of   9 degrees of freedom as
           vibrations may cause significant error
 Vibrational temperatures:     78.67   185.43   232.84   259.23   261.54
          (Kelvin)            312.51   663.47   703.86   867.53   918.44
                             1192.84  1204.25  1456.27  1477.88  1544.53
                             1562.01  1890.14  1914.98  1990.03  1991.03
                             2286.70  2297.48  2454.27  2472.17  4205.75
                             4215.11  4479.14  4539.23  5164.68  5164.70

 Zero-point correction=                           0.091817 (Hartree/Particle)
 Thermal correction to Energy=                    0.099588
 Thermal correction to Enthalpy=                  0.100532
 Thermal correction to Gibbs Free Energy=         0.059395
 Sum of electronic and zero-point Energies=           -339.358972
 Sum of electronic and thermal Energies=              -339.351201
 Sum of electronic and thermal Enthalpies=            -339.350257
 Sum of electronic and thermal Free Energies=         -339.391394

                     E (Thermal)             CV                S
                      KCal/Mol        Cal/Mol-Kelvin    Cal/Mol-Kelvin
 Total                   62.492             25.066             86.581
 Electronic               0.000              0.000              0.000
 Translational            0.889              2.981             39.405
 Rotational               0.889              2.981             27.358
 Vibrational             60.715             19.104             19.818
 Vibration     1          0.596              1.976              4.641
 Vibration     2          0.611              1.924              2.963
 Vibration     3          0.622              1.889              2.528
 Vibration     4          0.629              1.867              2.327
 Vibration     5          0.630              1.865              2.310
 Vibration     6          0.646              1.815              1.982
 Vibration     7          0.819              1.336              0.763
 Vibration     8          0.845              1.274              0.686
 Vibration     9          0.961              1.026              0.445

 Optimization completed.
    -- Stationary point found.
 Normal termination of Gaussian 09 at Thu Nov  7 16:18:07 2019.
