 Gaussian 09, Revision A.01,
 Gaussian 09:  EM64L-G09RevA.01  8-May-2009

 ----------------------------
 #n B3LYP/STO-3G Opt SCRF=PCM
 ----------------------------

 -----
 Title
 -----
 Symbolic Z-matrix:
 Charge =  0 Multiplicity = 1

 SCF Done:  E(RB3LYP) =  -335.264551376     A.U. after   12 cycles
 SCF Done:  E(RB3LYP) =  -335.264579057     A.U. after   10 cycles
 SCF Done:  E(RB3LYP) =  -335.264589625     A.U. after   10 cycles
 SCF Done:  E(RB3LYP) =  -335.264545872     A.U. after   13 cycles
 SCF Done:  E(RB3LYP) =  -335.264600355     A.U. after   10 cycles
 SCF Done:  E(RB3LYP) =  -335.264603714     A.U. after    9 cycles
 SCF Done:  E(RB3LYP) =  -335.264606759     A.U. after    9 cycles
 SCF Done:  E(RB3LYP) =  -335.264607716     A.U. after    9 cycles
 Optimization completed.
    -- Stationary point found.

                         Standard orientation:
 ---------------------------------------------------------------------
 Center     Atomic      Atomic             Coordinates (Angstroms)
 Number     Number       Type             X           Y           Z
 ---------------------------------------------------------------------
      1          6           0       -1.844704    0.046731   -0.000101
      2          7           0       -1.075845    1.171998    0.000337
      3          8           0       -1.395472   -1.178319   -0.000100
      4          1           0        0.114743    1.179868    0.000267
      5          1           0       -1.622941    2.063172   -0.000156
      6          1           0       -2.953263    0.202523   -0.000137
      7          6           0        1.844553   -0.046662    0.000074
      8          7           0        1.075813   -1.172168    0.000001
      9          8           0        1.395552    1.178397   -0.000269
     10          1           0       -0.115368   -1.180059   -0.000075
     11          1           0        2.953185   -0.202617    0.000312
     12          1           0        1.624129   -2.062733    0.000535
 ---------------------------------------------------------------------

 The electronic state is 1-A.
 Alpha  occ. eigenvalues --  -18.87231 -18.87207 -14.11624 -14.11596 -10.09445
 Alpha  occ. eigenvalues --  -10.09422  -0.97452  -0.96322  -0.82693  -0.81181
 Alpha  occ. eigenvalues --   -0.58020  -0.52546  -0.47229  -0.46851  -0.45446
 Alpha  occ. eigenvalues --   -0.37394  -0.32360  -0.31911  -0.31096  -0.29276
 Alpha  occ. eigenvalues --   -0.18517  -0.16246  -0.15075  -0.14949
 Alpha virt. eigenvalues --    0.10620   0.11236   0.33736   0.34433   0.36684
 Alpha virt. eigenvalues --    0.39959   0.41855   0.48942   0.53823   0.56475
 Alpha virt. eigenvalues --    0.59235   0.65732

 Mulliken atomic charges:
              1
     1  C    0.137900
     2  N   -0.389794
     3  O   -0.256838
     4  H    0.235737
     5  H    0.193659
     6  H    0.079761
     7  C    0.137717
     8  N   -0.389884
     9  O   -0.257000
    10  H    0.235733
    11  H    0.079559
    12  H    0.193451
 Sum of Mulliken atomic charges =   0.00000

 Dipole moment (field-independent basis, Debye):
    X=             -0.0064    Y=              0.0027    Z=              0.0005  Tot=              0.0070
 Quadrupole moment (field-independent basis, Debye-Ang):
   XX=            -26.6050   YY=            -31.4310   ZZ=            -33.1592
   XY=             -8.1963   XZ=              0.0034   YZ=             -0.0026

 Normal termination of Gaussian 09 at Thu Nov  7 16:13:16 2019.
