 Gaussian 09, Revision A.01,
 Gaussian 09:  EM64L-G09RevA.01  8-May-2009

 ----------------------------------------------------------------------
 # pbepbe/6-31G** force nosymm td(root=1,nstates=20,nonEqSolv) SCRF=PCM
  guess=read
 ----------------------------------------------------------------------

 -----
 Title
 -----
 Symbolic Z-matrix:
 Charge =  0 Multiplicity = 1

                          Input orientation:
 ---------------------------------------------------------------------
 Center     Atomic      Atomic             Coordinates (Angstroms)
 Number     Number       Type             X           Y           Z
 ---------------------------------------------------------------------
      1          6           0       -2.025022   -0.106380   -0.000118
      2          7           0       -1.430390    1.098523   -0.000097
      3          8           0       -1.435793   -1.207854   -0.000074
      4          1           0       -0.392539    1.181354   -0.000040
      5          1           0       -2.002209    1.938928   -0.000117
      6          1           0       -3.136712   -0.056939   -0.000158
      7          6           0        2.025023    0.106375    0.000125
      8          7           0        1.430377   -1.098520    0.000122
      9          8           0        1.435807    1.207856    0.000035
     10          1           0        0.392524   -1.181342    0.000061
     11          1           0        3.136714    0.056921    0.000169
     12          1           0        2.002188   -1.938932    0.000174
 ---------------------------------------------------------------------

 SCF Done:  E(RPBE-PBE) =  -339.450788754     A.U. after    1 cycles

 Excitation energies and oscillator strengths:

 Excited state symmetry could not be determined.
 Excited State   1:      Singlet-?Sym    5.3388 eV  232.23 nm  f=0.0000  <S**2>=0.000
      24 -> 25         0.70073
 This state for optimization and/or second-order correction.
 Copying the excited state density for this state as the 1-particle RhoCI density.

 Excited state symmetry could not be determined.
 Excited State   2:      Singlet-?Sym    5.5102 eV  225.01 nm  f=0.0005  <S**2>=0.000
      22 -> 25         0.19153
      24 -> 26         0.68064

 Excited state symmetry could not be determined.
 Excited State   3:      Singlet-?Sym    5.8757 eV  211.01 nm  f=0.0020  <S**2>=0.000
      22 -> 25         0.68045
      24 -> 26        -0.19142

 Excited state symmetry could not be determined.
 Excited State   4:      Singlet-?Sym    5.8955 eV  210.30 nm  f=0.0000  <S**2>=0.000
      21 -> 26         0.43151
      23 -> 25         0.55996

 Excited state symmetry could not be determined.
 Excited State   5:      Singlet-?Sym    5.9241 eV  209.29 nm  f=0.0001  <S**2>=0.000
      21 -> 25         0.50468
      23 -> 26         0.49526

 Excited state symmetry could not be determined.
 Excited State   6:      Singlet-?Sym    6.0468 eV  205.04 nm  f=0.0000  <S**2>=0.000
      22 -> 26         0.70052

 Excited state symmetry could not be determined.
 Excited State   7:      Singlet-?Sym    7.4815 eV  165.72 nm  f=0.0000  <S**2>=0.000
      21 -> 26         0.51569
      22 -> 27        -0.22649
      23 -> 25        -0.38953
      24 -> 28         0.13385

 Excited state symmetry could not be determined.
 Excited State   8:      Singlet-?Sym    7.6203 eV  162.70 nm  f=0.1139  <S**2>=0.000
      21 -> 25         0.35258
      22 -> 28        -0.13332
      23 -> 26        -0.35850
      24 -> 27         0.47500

 Excited state symmetry could not be determined.
 Excited State   9:      Singlet-?Sym    7.9439 eV  156.08 nm  f=0.0000  <S**2>=0.000
      22 -> 27         0.18393
      24 -> 28         0.67720

 Excited state symmetry could not be determined.
 Excited State  10:      Singlet-?Sym    8.0828 eV  153.39 nm  f=0.0943  <S**2>=0.000
      21 -> 25        -0.23326
      22 -> 28         0.39576
      23 -> 26         0.23787
      24 -> 27         0.47023

 Excited state symmetry could not be determined.
 Excited State  11:      Singlet-?Sym    8.2951 eV  149.47 nm  f=0.0004  <S**2>=0.000
      21 -> 28         0.13986
      23 -> 27         0.69179

 Excited state symmetry could not be determined.
 Excited State  12:      Singlet-?Sym    8.3848 eV  147.87 nm  f=0.0000  <S**2>=0.000
      21 -> 27         0.31740
      23 -> 28         0.63138

 Excited state symmetry could not be determined.
 Excited State  13:      Singlet-?Sym    8.5488 eV  145.03 nm  f=0.0000  <S**2>=0.000
      21 -> 27         0.62919
      23 -> 28        -0.31377

 Excited state symmetry could not be determined.
 Excited State  14:      Singlet-?Sym    8.5648 eV  144.76 nm  f=0.0000  <S**2>=0.000
      21 -> 26         0.17027
      22 -> 27         0.62814
      23 -> 25        -0.14295
      24 -> 28        -0.13675
      24 -> 30         0.14121

 Excited state symmetry could not be determined.
 Excited State  15:      Singlet-?Sym    8.6387 eV  143.52 nm  f=0.0022  <S**2>=0.000
      21 -> 28         0.68941
      23 -> 27        -0.13457

 Excited state symmetry could not be determined.
 Excited State  16:      Singlet-?Sym    8.7098 eV  142.35 nm  f=0.5555  <S**2>=0.000
      21 -> 25         0.23467
      22 -> 28         0.56652
      23 -> 26        -0.23927
      24 -> 27        -0.20636

 Excited state symmetry could not be determined.
 Excited State  17:      Singlet-?Sym    8.9510 eV  138.51 nm  f=0.3878  <S**2>=0.000
      24 -> 29         0.69196

 Excited state symmetry could not be determined.
 Excited State  18:      Singlet-?Sym    9.2165 eV  134.52 nm  f=0.0000  <S**2>=0.000
      17 -> 26         0.13805
      20 -> 25         0.69113

 Excited state symmetry could not be determined.
 Excited State  19:      Singlet-?Sym    9.2477 eV  134.07 nm  f=0.0131  <S**2>=0.000
      18 -> 26        -0.46012
      19 -> 25         0.53519

 Excited state symmetry could not be determined.
 Excited State  20:      Singlet-?Sym    9.2561 eV  133.95 nm  f=0.0000  <S**2>=0.000
      18 -> 25         0.50718
      19 -> 26        -0.49131

 Alpha  occ. eigenvalues --  -18.75328 -18.75328 -14.02277 -14.02277  -9.99516
 Alpha  occ. eigenvalues --   -9.99516  -0.94124  -0.93679  -0.82184  -0.81677
 Alpha  occ. eigenvalues --   -0.56408  -0.54525  -0.49218  -0.48335  -0.44490
 Alpha  occ. eigenvalues --   -0.40060  -0.37255  -0.35629  -0.35104  -0.35066
 Alpha  occ. eigenvalues --   -0.23504  -0.22796  -0.22731  -0.20984
 Alpha virt. eigenvalues --   -0.01681  -0.01019   0.07542   0.07951   0.11166
 Alpha virt. eigenvalues --    0.12884   0.15796   0.19725   0.23901   0.28697
 Alpha virt. eigenvalues --    0.31035   0.34687   0.48658   0.49223   0.50582

 Mulliken atomic charges:
              1
     1  C    0.336914
     2  N   -0.559433
     3  O   -0.493241
     4  H    0.305454
     5  H    0.299159
     6  H    0.111148
     7  C    0.336912
     8  N   -0.559434
     9  O   -0.493241
    10  H    0.305456
    11  H    0.111146
    12  H    0.299158
 Sum of Mulliken atomic charges =   0.00000

 Dipole moment (field-independent basis, Debye):
    X=             -0.0001    Y=              0.0000    Z=              0.0002  Tot=              0.0002
 Quadrupole moment (field-independent basis, Debye-Ang):
   XX=            -24.5426   YY=            -33.9559   ZZ=            -36.8137
   XY=            -13.0848   XZ=              0.0009   YZ=             -0.0007

 Normal termination of Gaussian 09 at Thu Nov  7 16:44:18 2019.
