 Gaussian 09, Revision A.01,
 Gaussian 09:  EM64L-G09RevA.01  8-May-2009

 ------------------------------------------------------------
 # pbepbe/6-31G** force nosymm td(root=9,nstates=20) SCRF=PCM
 ------------------------------------------------------------

 -----
 Title
 -----
 Symbolic Z-matrix:
 Charge =  0 Multiplicity = 1

                          Input orientation:
 ---------------------------------------------------------------------
 Center     Atomic      Atomic             Coordinates (Angstroms)
 Number     Number       Type             X           Y           Z
 ---------------------------------------------------------------------
      1          6           0       -2.025022   -0.106380   -0.000118
      2          7           0       -1.430390    1.098523   -0.000097
      3          8           0       -1.435793   -1.207854   -0.000074
      4          1           0       -0.392539    1.181354   -0.000040
      5          1           0       -2.002209    1.938928   -0.000117
      6          1           0       -3.136712   -0.056939   -0.000158
      7          6           0        2.025023    0.106375    0.000125
      8          7           0        1.430377   -1.098520    0.000122
      9          8           0        1.435807    1.207856    0.000035
     10          1           0        0.392524   -1.181342    0.000061
     11          1           0        3.136714    0.056921    0.000169
     12          1           0        2.002188   -1.938932    0.000174
 ---------------------------------------------------------------------

 SCF Done:  E(RPBE-PBE) =  -339.450788754     A.U. after   11 cycles

 Excitation energies and oscillator strengths:

 Excited state symmetry could not be determined.
 Excited State   1:      Singlet-?Sym    5.3357 eV  232.37 nm  f=0.0000  <S**2>=0.000
      24 -> 25         0.70121

 Excited state symmetry could not be determined.
 Excited State   2:      Singlet-?Sym    5.5078 eV  225.11 nm  f=0.0005  <S**2>=0.000
      22 -> 25         0.18491
      24 -> 26         0.68248

 Excited state symmetry could not be determined.
 Excited State   3:      Singlet-?Sym    5.8700 eV  211.22 nm  f=0.0023  <S**2>=0.000
      22 -> 25         0.68229
      24 -> 26        -0.18481

 Excited state symmetry could not be determined.
 Excited State   4:      Singlet-?Sym    5.8942 eV  210.35 nm  f=0.0000  <S**2>=0.000
      21 -> 26         0.42804
      23 -> 25         0.56263

 Excited state symmetry could not be determined.
 Excited State   5:      Singlet-?Sym    5.9240 eV  209.29 nm  f=0.0001  <S**2>=0.000
      21 -> 25         0.50562
      23 -> 26         0.49431

 Excited state symmetry could not be determined.
 Excited State   6:      Singlet-?Sym    6.0424 eV  205.19 nm  f=0.0000  <S**2>=0.000
      22 -> 26         0.70100

 Excited state symmetry could not be determined.
 Excited State   7:      Singlet-?Sym    7.4230 eV  167.03 nm  f=0.0000  <S**2>=0.000
      21 -> 26         0.52714
      22 -> 27        -0.20052
      23 -> 25        -0.39411
      24 -> 28         0.11887

 Excited state symmetry could not be determined.
 Excited State   8:      Singlet-?Sym    7.5197 eV  164.88 nm  f=0.2574  <S**2>=0.000
      21 -> 25        -0.40570
      22 -> 28         0.12133
      23 -> 26         0.41429
      24 -> 27        -0.38123

 Excited state symmetry could not be determined.
 Excited State   9:      Singlet-?Sym    7.9312 eV  156.32 nm  f=0.0000  <S**2>=0.000
      22 -> 27         0.15899
      24 -> 28         0.68416
 This state for optimization and/or second-order correction.
 Copying the excited state density for this state as the 1-particle RhoCI density.

 Excited state symmetry could not be determined.
 Excited State  10:      Singlet-?Sym    8.0259 eV  154.48 nm  f=0.1472  <S**2>=0.000
      21 -> 25        -0.21110
      22 -> 28         0.28869
      23 -> 26         0.21623
      24 -> 27         0.56108

 Excited state symmetry could not be determined.
 Excited State  11:      Singlet-?Sym    8.2935 eV  149.50 nm  f=0.0005  <S**2>=0.000
      21 -> 28         0.13540
      23 -> 27         0.69267

 Excited state symmetry could not be determined.
 Excited State  12:      Singlet-?Sym    8.3843 eV  147.88 nm  f=0.0000  <S**2>=0.000
      21 -> 27         0.31332
      23 -> 28         0.63340

 Excited state symmetry could not be determined.
 Excited State  13:      Singlet-?Sym    8.4990 eV  145.88 nm  f=0.0000  <S**2>=0.000
      21 -> 26         0.15071
      22 -> 27         0.64742
      23 -> 25        -0.12603
      24 -> 28        -0.12200
      24 -> 30         0.11620

 Excited state symmetry could not be determined.
 Excited State  14:      Singlet-?Sym    8.5320 eV  145.32 nm  f=0.6193  <S**2>=0.000
      21 -> 25         0.16573
      22 -> 28         0.62988
      23 -> 26        -0.16968
      24 -> 27        -0.17283

 Excited state symmetry could not be determined.
 Excited State  15:      Singlet-?Sym    8.5449 eV  145.10 nm  f=0.0000  <S**2>=0.000
      21 -> 27         0.63127
      23 -> 28        -0.30977

 Excited state symmetry could not be determined.
 Excited State  16:      Singlet-?Sym    8.6352 eV  143.58 nm  f=0.0027  <S**2>=0.000
      21 -> 28         0.69044
      23 -> 27        -0.13028

 Excited state symmetry could not be determined.
 Excited State  17:      Singlet-?Sym    8.8523 eV  140.06 nm  f=0.4865  <S**2>=0.000
      24 -> 29         0.69554

 Excited state symmetry could not be determined.
 Excited State  18:      Singlet-?Sym    9.2126 eV  134.58 nm  f=0.0000  <S**2>=0.000
      17 -> 26         0.13281
      20 -> 25         0.69209

 Excited state symmetry could not be determined.
 Excited State  19:      Singlet-?Sym    9.2449 eV  134.11 nm  f=0.0105  <S**2>=0.000
      18 -> 26        -0.45492
      19 -> 25         0.54082

 Excited state symmetry could not be determined.
 Excited State  20:      Singlet-?Sym    9.2561 eV  133.95 nm  f=0.0000  <S**2>=0.000
      18 -> 25         0.50694
      19 -> 26        -0.49122

 Alpha  occ. eigenvalues --  -18.75328 -18.75328 -14.02277 -14.02277  -9.99516
 Alpha  occ. eigenvalues --   -9.99516  -0.94124  -0.93679  -0.82184  -0.81677
 Alpha  occ. eigenvalues --   -0.56408  -0.54525  -0.49218  -0.48335  -0.44490
 Alpha  occ. eigenvalues --   -0.40060  -0.37255  -0.35629  -0.35104  -0.35066
 Alpha  occ. eigenvalues --   -0.23504  -0.22796  -0.22731  -0.20984
 Alpha virt. eigenvalues --   -0.01681  -0.01019   0.07542   0.07951   0.11166
 Alpha virt. eigenvalues --    0.12884   0.15796   0.19725   0.23901   0.28697
 Alpha virt. eigenvalues --    0.31035   0.34687   0.48658   0.49223   0.50582

 Mulliken atomic charges:
              1
     1  C    0.336914
     2  N   -0.559433
     3  O   -0.493240
     4  H    0.305454
     5  H    0.299159
     6  H    0.111148
     7  C    0.336912
     8  N   -0.559434
     9  O   -0.493241
    10  H    0.305456
    11  H    0.111146
    12  H    0.299158
 Sum of Mulliken atomic charges =   0.00000

 Dipole moment (field-independent basis, Debye):
    X=             -0.0001    Y=              0.0000    Z=              0.0002  Tot=              0.0002
 Quadrupole moment (field-independent basis, Debye-Ang):
   XX=            -24.5426   YY=            -33.9559   ZZ=            -36.8137
   XY=            -13.0847   XZ=              0.0009   YZ=             -0.0007

 Normal termination of Gaussian 09 at Thu Nov  7 17:25:58 2019.
