 Gaussian 09, Revision A.01,
 Gaussian 09:  EM64L-G09RevA.01  8-May-2009

 ------------------------
 # ccsd/6-31G* opt(tight)
 ------------------------

 -----
 Title
 -----
 Symbolic Z-matrix:
 Charge =  0 Multiplicity = 1

 SCF Done:  E(RHF) =  -168.928581315     A.U. after   13 cycles
 E2 =    -0.4658175334D+00 EUMP2 =    -0.16939439884846D+03
 SCF Done:  E(RHF) =  -168.928574467     A.U. after   14 cycles
 E2 =    -0.4658244465D+00 EUMP2 =    -0.16939439891397D+03
 SCF Done:  E(RHF) =  -168.928568850     A.U. after   14 cycles
 E2 =    -0.4658306023D+00 EUMP2 =    -0.16939439945186D+03
 SCF Done:  E(RHF) =  -168.928570804     A.U. after    8 cycles
 E2 =    -0.4658291614D+00 EUMP2 =    -0.16939439996521D+03
 Optimization completed.
    -- Stationary point found.

                         Standard orientation:
 ---------------------------------------------------------------------
 Center     Atomic      Atomic             Coordinates (Angstroms)
 Number     Number       Type             X           Y           Z
 ---------------------------------------------------------------------
      1          6           0       -0.160335    0.390502    0.000016
      2          7           0        1.085620   -0.158481   -0.000132
      3          8           0       -1.199442   -0.246944    0.000035
      4          1           0        1.177364   -1.165444    0.000181
      5          1           0        1.918391    0.410991    0.000339
      6          1           0       -0.137551    1.496358    0.000024
 ---------------------------------------------------------------------

 The electronic state is 1-A.
 Alpha  occ. eigenvalues --  -20.53213 -15.59768 -11.35876  -1.37626  -1.21312
 Alpha  occ. eigenvalues --   -0.84701  -0.74550  -0.66756  -0.60038  -0.56307
 Alpha  occ. eigenvalues --   -0.42852  -0.41268
 Alpha virt. eigenvalues --    0.20137   0.21570   0.25363   0.31112   0.42636
 Alpha virt. eigenvalues --    0.53626   0.75294   0.75854   0.85926   0.91955
 Alpha virt. eigenvalues --    0.96006   0.96437   1.06634   1.11700   1.15371

 Mulliken atomic charges:
              1
     1  C    0.515480
     2  N   -0.889092
     3  O   -0.570815
     4  H    0.401651
     5  H    0.391048
     6  H    0.151728
 Sum of Mulliken atomic charges =   0.00000

 Dipole moment (field-independent basis, Debye):
    X=              4.0684    Y=              1.1785    Z=              0.0015  Tot=              4.2357
 Quadrupole moment (field-independent basis, Debye-Ang):
   XX=            -18.0651   YY=            -14.6893   ZZ=            -18.6512
   XY=             -1.2013   XZ=              0.0027   YZ=             -0.0002

 Normal termination of Gaussian 09 at Mon Oct 21 17:52:55 2019.
