 Gaussian 09, Revision A.01,
 Gaussian 09:  EM64L-G09RevA.01  8-May-2009

 --------------------------------------
 # b3lyp/6-31G* force nosymm td(root=1)
 --------------------------------------

 -----
 Title
 -----
 Symbolic Z-matrix:
 Charge =  0 Multiplicity = 1

                          Input orientation:
 ---------------------------------------------------------------------
 Center     Atomic      Atomic             Coordinates (Angstroms)
 Number     Number       Type             X           Y           Z
 ---------------------------------------------------------------------
      1          6           0       -0.161072    0.390003   -0.000009
      2          7           0        1.091202   -0.160409   -0.000077
      3          8           0       -1.208832   -0.245677    0.000017
      4          1           0        1.186793   -1.174448    0.000146
      5          1           0        1.930160    0.413764    0.000299
      6          1           0       -0.118281    1.508950    0.000010
 ---------------------------------------------------------------------

 SCF Done:  E(RB3LYP) =  -169.888476581     A.U. after   13 cycles

 Excitation energies and oscillator strengths:

 Excited state symmetry could not be determined.
 Excited State   1:      Singlet-?Sym    5.6681 eV  218.74 nm  f=0.0010  <S**2>=0.000
      12 -> 13         0.70664
 This state for optimization and/or second-order correction.
 Copying the excited state density for this state as the 1-particle RhoCI density.

 Excited state symmetry could not be determined.
 Excited State   2:      Singlet-?Sym    7.5288 eV  164.68 nm  f=0.0127  <S**2>=0.000
      11 -> 13         0.47026
      12 -> 14         0.52405

 Excited state symmetry could not be determined.
 Excited State   3:      Singlet-?Sym    7.9926 eV  155.12 nm  f=0.0021  <S**2>=0.000
      11 -> 14         0.70343

 Alpha  occ. eigenvalues --  -19.11826 -14.36822 -10.29250  -1.02668  -0.90697
 Alpha  occ. eigenvalues --   -0.62575  -0.55495  -0.47704  -0.40905  -0.39835
 Alpha  occ. eigenvalues --   -0.27206  -0.25498
 Alpha virt. eigenvalues --    0.02640   0.06903   0.10546   0.15935   0.26757
 Alpha virt. eigenvalues --    0.33746   0.53620   0.55379   0.64784   0.67461
 Alpha virt. eigenvalues --    0.68759   0.71065   0.83331   0.85829   0.86510

 Mulliken atomic charges:
              1
     1  C    0.364624
     2  N   -0.699216
     3  O   -0.451028
     4  H    0.344467
     5  H    0.337094
     6  H    0.104060
 Sum of Mulliken atomic charges =   0.00000

 Dipole moment (field-independent basis, Debye):
    X=              3.7987    Y=              0.7337    Z=              0.0010  Tot=              3.8689
 Quadrupole moment (field-independent basis, Debye-Ang):
   XX=            -17.2539   YY=            -15.0301   ZZ=            -18.4629
   XY=             -1.0696   XZ=              0.0019   YZ=             -0.0001

 Normal termination of Gaussian 09 at Tue Oct  8 22:32:46 2019.
