 Gaussian 09, Revision A.01,
 Gaussian 09:  EM64L-G09RevA.01  8-May-2009

 --------------------------------------------------------
 # b3lyp/6-31G(d) opt freq=(raman,savenormalmodes) nosymm
 --------------------------------------------------------

 -----
 Title
 -----
 Symbolic Z-matrix:
 Charge =  0 Multiplicity = 1

 SCF Done:  E(RB3LYP) =  -539.530523224     A.U. after   13 cycles
 Optimization completed.
    -- Stationary point found.
 Normal termination of Gaussian 09 at Tue Oct  8 20:54:27 2019.

 --------------------------------------------------------------------
 #N Geom=AllCheck Guess=TCheck SCRF=Check GenChk RB3LYP/6-31G(d) Freq
 --------------------------------------------------------------------

 Title
 -----
 Redundant internal coordinates taken from checkpoint file:
 freq.chk
 Charge =  0 Multiplicity = 1

                          Input orientation:
 ---------------------------------------------------------------------
 Center     Atomic      Atomic             Coordinates (Angstroms)
 Number     Number       Type             X           Y           Z
 ---------------------------------------------------------------------
      1          6           0        3.660546   -0.713278    0.000000
      2          6           0        3.660546    0.713278    0.000000
      3          6           0        2.479518    1.407225    0.000000
      4          6           0        1.223854    0.722557    0.000000
      5          6           0        2.479518   -1.407225    0.000000
      6          6           0        1.223854   -0.722557    0.000000
      7          6           0        0.000000    1.403592    0.000000
      8          6           0       -1.223855    0.722556    0.000000
      9          6           0        0.000000   -1.403592    0.000000
     10          6           0       -1.223855   -0.722556    0.000000
     11          6           0       -2.479517    1.407225    0.000000
     12          6           0       -3.660546    0.713277    0.000000
     13          6           0       -3.660546   -0.713277    0.000000
     14          6           0       -2.479517   -1.407225    0.000000
     15          1           0        4.607435   -1.246428    0.000000
     16          1           0        4.607435    1.246428    0.000000
     17          1           0        2.476408    2.494786    0.000000
     18          1           0        2.476408   -2.494786    0.000000
     19          1           0        0.000000    2.491957    0.000000
     20          1           0        0.000000   -2.491957    0.000000
     21          1           0       -2.476408    2.494785    0.000000
     22          1           0       -4.607435    1.246428    0.000000
     23          1           0       -4.607435   -1.246428    0.000000
     24          1           0       -2.476408   -2.494785    0.000000
 ---------------------------------------------------------------------

 SCF Done:  E(RB3LYP) =  -539.530523224     A.U. after    1 cycles

 Alpha  occ. eigenvalues --  -10.19742 -10.19740 -10.19704 -10.19701 -10.19077
 Alpha  occ. eigenvalues --  -10.19077 -10.19042 -10.19042 -10.18979 -10.18979
 Alpha  occ. eigenvalues --  -10.18971 -10.18970 -10.18968 -10.18967  -0.87727
 Alpha  occ. eigenvalues --   -0.84597  -0.79744  -0.78056  -0.74840  -0.73509
 Alpha  occ. eigenvalues --   -0.70018  -0.64175  -0.61259  -0.59746  -0.58841
 Alpha  occ. eigenvalues --   -0.53747  -0.51831  -0.50105  -0.46343  -0.45959
 Alpha  occ. eigenvalues --   -0.44986  -0.44130  -0.42220  -0.41250  -0.40305
 Alpha  occ. eigenvalues --   -0.39591  -0.38637  -0.37649  -0.35790  -0.34481
 Alpha  occ. eigenvalues --   -0.33326  -0.32440  -0.30024  -0.29528  -0.25382
 Alpha  occ. eigenvalues --   -0.23722  -0.19206
 Alpha virt. eigenvalues --   -0.05994  -0.01048   0.00873   0.04561   0.06839
 Alpha virt. eigenvalues --    0.09933   0.10250   0.11082   0.14152   0.14638
 Alpha virt. eigenvalues --    0.15696   0.16810   0.17133   0.17817   0.18120

 Mulliken atomic charges:
              1
     1  C   -0.139848
     2  C   -0.139848
     3  C   -0.184051
     4  C    0.148189
     5  C   -0.184051
     6  C    0.148189
     7  C   -0.297660
     8  C    0.148189
     9  C   -0.297660
    10  C    0.148189
    11  C   -0.184052
    12  C   -0.139848
    13  C   -0.139848
    14  C   -0.184052
    15  H    0.130199
    16  H    0.130199
    17  H    0.129833
    18  H    0.129833
    19  H    0.129018
    20  H    0.129018
    21  H    0.129833
    22  H    0.130199
    23  H    0.130199
    24  H    0.129833
 Sum of Mulliken atomic charges =   0.00000

 Dipole moment (field-independent basis, Debye):
    X=              0.0000    Y=              0.0000    Z=              0.0000  Tot=              0.0000
 Quadrupole moment (field-independent basis, Debye-Ang):
   XX=            -69.7211   YY=            -70.6206   ZZ=            -85.7918
   XY=              0.0000   XZ=              0.0000   YZ=              0.0000

  Exact polarizability: 268.860   0.000 150.467   0.000   0.000  44.257
 Approx polarizability: 456.303   0.000 287.535   0.000   0.000  70.865

                     1                      2                      3
                     A                      A                      A
 Frequencies --    93.5419               124.4623               235.3413
 Red. masses --     4.9281                 3.6932                 4.4628
 Frc consts  --     0.0254                 0.0337                 0.1456
 IR Inten    --     0.8592                 0.0000                 1.2820
 Raman Activ --     0.0000                 0.0000                 0.0000

                     4                      5                      6
                     A                      A                      A
 Frequencies --   239.0242               273.6308               388.5743
 Red. masses --     4.8317                 3.7259                 3.3889
 Frc consts  --     0.1626                 0.1644                 0.3015
 IR Inten    --     0.0000                 0.0000                 0.0795
 Raman Activ --     6.3923                 0.2485                 0.0000

                     7                      8                      9
                     A                      A                      A
 Frequencies --   394.0968               398.8683               485.8885
 Red. masses --     4.6211                 6.7023                 2.4765
 Frc consts  --     0.4229                 0.6282                 0.3445
 IR Inten    --     0.0000                 0.0000                12.7939
 Raman Activ --     4.0618                25.3500                 0.0000

                    10                     11                     12
                     A                      A                      A
 Frequencies --   488.7926               508.1083               534.4056
 Red. masses --     2.8762                 3.6301                 6.2976
 Frc consts  --     0.4049                 0.5522                 1.0597
 IR Inten    --     0.0000                 0.0000                 0.0000
 Raman Activ --     0.6397                 0.0000                11.2958

                    13                     14                     15
                     A                      A                      A
 Frequencies --   590.6571               617.7998               642.1821
 Red. masses --     3.5288                 6.7902                 6.6647
 Frc consts  --     0.7254                 1.5270                 1.6194
 IR Inten    --     0.0000                 8.1704                 0.0000
 Raman Activ --     0.0983                 0.0000                 1.3113

                    16                     17                     18
                     A                      A                      A
 Frequencies --   661.4902               746.0774               759.3801
 Red. masses --     6.0756                 1.1885                 3.9407
 Frc consts  --     1.5663                 0.3898                 1.3389
 IR Inten    --     0.8014                60.2055                 0.0000
 Raman Activ --     0.0000                 0.0000                 0.0000

                    19                     20                     21
                     A                      A                      A
 Frequencies --   766.5920               775.6751               783.3804
 Red. masses --     5.6460                 1.3375                 2.8484
 Frc consts  --     1.9549                 0.4741                 1.0299
 IR Inten    --     0.0000                 0.0000                 0.0000
 Raman Activ --    60.1338                10.4046                12.4816

                    22                     23                     24
                     A                      A                      A
 Frequencies --   825.7528               851.3662               871.7213
 Red. masses --     3.6618                 1.2719                 1.5466
 Frc consts  --     1.4711                 0.5432                 0.6925
 IR Inten    --     0.0042                 0.0000                 0.0000
 Raman Activ --     0.0000                 3.2968                 0.0000

                    25                     26                     27
                     A                      A                      A
 Frequencies --   893.0197               917.5391               919.9078
 Red. masses --     1.4396                 5.5939                 1.6939
 Frc consts  --     0.6764                 2.7747                 0.8446
 IR Inten    --    54.7034                 1.7158                 0.0000
 Raman Activ --     0.0000                 0.0000                 3.6592

                    28                     29                     30
                     A                      A                      A
 Frequencies --   927.4739               957.8746               962.8447
 Red. masses --     5.5088                 1.3169                 1.3560
 Frc consts  --     2.7920                 0.7119                 0.7407
 IR Inten    --     0.0000                 0.0000                 6.4688
 Raman Activ --     0.1653                 0.2796                 0.0000

                    31                     32                     33
                     A                      A                      A
 Frequencies --   989.3561               990.8533              1035.7985
 Red. masses --     1.2692                 1.2852                 2.3207
 Frc consts  --     0.7320                 0.7434                 1.4670
 IR Inten    --     0.0000                 0.0000                 3.9245
 Raman Activ --     0.0000                 0.2301                 0.0000

                    34                     35                     36
                     A                      A                      A
 Frequencies --  1040.0053              1134.4490              1174.9588
 Red. masses --     2.4118                 2.1957                 1.3551
 Frc consts  --     1.5370                 1.6649                 1.1022
 IR Inten    --     0.0000                 0.0000                 1.3692
 Raman Activ --    49.3625                 0.7232                 0.0000

                    37                     38                     39
                     A                      A                      A
 Frequencies --  1181.5174              1199.4993              1200.0145
 Red. masses --     1.3908                 1.0664                 1.3685
 Frc consts  --     1.1439                 0.9040                 1.1611
 IR Inten    --     4.6990                 0.0000                 1.5928
 Raman Activ --     0.0000                 4.9259                 0.0000

                    40                     41                     42
                     A                      A                      A
 Frequencies --  1222.8317              1297.7747              1303.2324
 Red. masses --     1.2159                 1.9312                 2.9473
 Frc consts  --     1.0713                 1.9164                 2.9493
 IR Inten    --     0.0000                 8.2169                 0.0000
 Raman Activ --    40.9273                 0.0000                52.9039

                    43                     44                     45
                     A                      A                      A
 Frequencies --  1307.2734              1348.1761              1393.3172
 Red. masses --     1.4631                 3.2216                 3.2810
 Frc consts  --     1.4732                 3.4500                 3.7528
 IR Inten    --     0.0000                 4.2231                 3.9916
 Raman Activ --     0.0129                 0.0000                 0.0000

                    46                     47                     48
                     A                      A                      A
 Frequencies --  1427.5723              1433.5501              1444.7726
 Red. masses --     1.5641                 4.2992                 9.6631
 Frc consts  --     1.8780                 5.2055                11.8841
 IR Inten    --     0.0000                 0.6020                 0.0000
 Raman Activ --     3.1196                 0.0000               739.3348

                    49                     50                     51
                     A                      A                      A
 Frequencies --  1500.4355              1500.7804              1534.6458
 Red. masses --     1.9213                 2.7485                 2.5924
 Frc consts  --     2.5485                 3.6473                 3.5972
 IR Inten    --     1.8923                 1.1968                 0.0000
 Raman Activ --     0.0000                 0.0000               110.1658

                    52                     53                     54
                     A                      A                      A
 Frequencies --  1596.8145              1609.7281              1640.4442
 Red. masses --     4.9709                 7.1899                 5.0539
 Frc consts  --     7.4679                10.9769                 8.0132
 IR Inten    --     4.4334                 0.0000                 0.0000
 Raman Activ --     0.0000                86.0581                 8.7994

                    55                     56                     57
                     A                      A                      A
 Frequencies --  1684.6855              1687.8655              3172.8047
 Red. masses --     5.9892                 5.6210                 1.0889
 Frc consts  --    10.0152                 9.4350                 6.4583
 IR Inten    --     0.0000                 6.8607                10.2091
 Raman Activ --     1.5825                 0.0000                 0.0000

                    58                     59                     60
                     A                      A                      A
 Frequencies --  3174.6036              3177.7089              3178.4887
 Red. masses --     1.0899                 1.0854                 1.0861
 Frc consts  --     6.4718                 6.4576                 6.4650
 IR Inten    --     0.0000                 0.0001                16.8560
 Raman Activ --    41.1849                11.7254                 0.0001

                    61                     62                     63
                     A                      A                      A
 Frequencies --  3181.8933              3183.3964              3195.9961
 Red. masses --     1.0878                 1.0879                 1.0937
 Frc consts  --     6.4887                 6.4956                 6.5821
 IR Inten    --     0.0000                 0.0000                 0.0001
 Raman Activ --     0.0018               317.9676               249.8677

                    64                     65                     66
                     A                      A                      A
 Frequencies --  3196.2891              3208.6076              3209.1506
 Red. masses --     1.0938                 1.0971                 1.0971
 Frc consts  --     6.5838                 6.6550                 6.6571
 IR Inten    --    73.5290                77.4621                 0.0004
 Raman Activ --     0.0002                 0.0041               756.0791

 - Thermochemistry -
 -------------------
 Temperature   298.150 Kelvin.  Pressure   1.00000 Atm.
 Atom     1 has atomic number  6 and mass  12.00000

 Molecular mass:   178.07825 amu.
 Principal axes and moments of inertia in atomic units:
                           1         2         3
     Eigenvalues --   841.652274001.310204842.96248
           X            1.00000   0.00000   0.00000
           Y            0.00000   1.00000   0.00000
           Z            0.00000   0.00000   1.00000
 This molecule is an asymmetric top.
 Rotational symmetry number  2.
 Warning -- assumption of classical behavior for rotation
           may cause significant error
 Rotational temperatures (Kelvin)      0.10291     0.02165     0.01788
 Rotational constants (GHZ):           2.14428     0.45104     0.37265
 Zero-point vibrational energy     510774.1 (Joules/Mol)
                                  122.07794 (Kcal/Mol)
 Warning -- explicit consideration of  14 degrees of freedom as
           vibrations may cause significant error
 Vibrational temperatures:    134.59   179.07   338.60   343.90   393.69
          (Kelvin)            559.07   567.02   573.88   699.08   703.26
                              731.05   768.89   849.82   888.87   923.96
                              951.74  1073.44  1092.58  1102.95  1116.02
                             1127.11  1188.07  1224.92  1254.21  1284.85
                             1320.13  1323.54  1334.43  1378.17  1385.32
                             1423.46  1425.62  1490.28  1496.33  1632.22
                             1690.50  1699.94  1725.81  1726.55  1759.38
                             1867.21  1875.06  1880.87  1939.72  2004.67
                             2053.96  2062.56  2078.70  2158.79  2159.29
                             2208.01  2297.46  2316.04  2360.23  2423.88
                             2428.46  4564.95  4567.54  4572.01  4573.13
                             4578.03  4580.19  4598.32  4598.74  4616.46
                             4617.25

 Zero-point correction=                           0.194544 (Hartree/Particle)
 Thermal correction to Energy=                    0.203965
 Thermal correction to Enthalpy=                  0.204909
 Thermal correction to Gibbs Free Energy=         0.160465
 Sum of electronic and zero-point Energies=           -539.335980
 Sum of electronic and thermal Energies=              -539.326558
 Sum of electronic and thermal Enthalpies=            -539.325614
 Sum of electronic and thermal Free Energies=         -539.370058

                     E (Thermal)             CV                S
                      KCal/Mol        Cal/Mol-Kelvin    Cal/Mol-Kelvin
 Total                  127.990             40.611             93.541
 Electronic               0.000              0.000              0.000
 Translational            0.889              2.981             41.438
 Rotational               0.889              2.981             29.790
 Vibrational            126.213             34.649             22.312
 Vibration     1          0.603              1.954              3.585
 Vibration     2          0.610              1.929              3.030
 Vibration     3          0.655              1.787              1.838
 Vibration     4          0.657              1.781              1.810
 Vibration     5          0.676              1.722              1.573
 Vibration     6          0.757              1.495              1.006
 Vibration     7          0.761              1.483              0.985
 Vibration     8          0.765              1.473              0.967
 Vibration     9          0.842              1.281              0.694
 Vibration    10          0.845              1.275              0.687
 Vibration    11          0.863              1.232              0.638
 Vibration    12          0.889              1.174              0.577
 Vibration    13          0.948              1.052              0.466
 Vibration    14          0.978              0.994              0.420

 Optimization completed.
    -- Stationary point found.
 Normal termination of Gaussian 09 at Tue Oct  8 20:59:55 2019.
