 Gaussian 09, Revision A.01,
 Gaussian 09:  EM64L-G09RevA.01  8-May-2009

 ----------------------------------------
 # b3lyp/6-31G(d) TD(root=1) Force nosymm
 ----------------------------------------

 -----
 Title
 -----
 Symbolic Z-matrix:
 Charge =  0 Multiplicity = 1

                          Input orientation:
 ---------------------------------------------------------------------
 Center     Atomic      Atomic             Coordinates (Angstroms)
 Number     Number       Type             X           Y           Z
 ---------------------------------------------------------------------
      1          6           0        3.660550   -0.713280    0.000000
      2          6           0        3.660550    0.713280    0.000000
      3          6           0        2.479520    1.407230    0.000000
      4          6           0        1.223850    0.722560    0.000000
      5          6           0        2.479520   -1.407230    0.000000
      6          6           0        1.223850   -0.722560    0.000000
      7          6           0        0.000000    1.403590    0.000000
      8          6           0       -1.223860    0.722560    0.000000
      9          6           0        0.000000   -1.403590    0.000000
     10          6           0       -1.223860   -0.722560    0.000000
     11          6           0       -2.479520    1.407230    0.000000
     12          6           0       -3.660550    0.713280    0.000000
     13          6           0       -3.660550   -0.713280    0.000000
     14          6           0       -2.479520   -1.407230    0.000000
     15          1           0        4.607440   -1.246430    0.000000
     16          1           0        4.607440    1.246430    0.000000
     17          1           0        2.476410    2.494790    0.000000
     18          1           0        2.476410   -2.494790    0.000000
     19          1           0        0.000000    2.491960    0.000000
     20          1           0        0.000000   -2.491960    0.000000
     21          1           0       -2.476410    2.494790    0.000000
     22          1           0       -4.607440    1.246430    0.000000
     23          1           0       -4.607440   -1.246430    0.000000
     24          1           0       -2.476410   -2.494790    0.000000
 ---------------------------------------------------------------------

 SCF Done:  E(RB3LYP) =  -539.530523221     A.U. after   13 cycles

 Excitation energies and oscillator strengths:

 Excited state symmetry could not be determined.
 Excited State   1:      Singlet-?Sym    3.2772 eV  378.33 nm  f=0.0583  <S**2>=0.000
      47 -> 48         0.69992
 This state for optimization and/or second-order correction.
 Copying the excited state density for this state as the 1-particle RhoCI density.

 Excited state symmetry could not be determined.
 Excited State   2:      Singlet-?Sym    3.9088 eV  317.20 nm  f=0.0017  <S**2>=0.000
      46 -> 48         0.51337
      47 -> 49         0.48411

 Excited state symmetry could not be determined.
 Excited State   3:      Singlet-?Sym    4.5898 eV  270.13 nm  f=0.0000  <S**2>=0.000
      45 -> 48         0.58543
      47 -> 50         0.39256

 Alpha  occ. eigenvalues --  -10.19742 -10.19740 -10.19704 -10.19701 -10.19077
 Alpha  occ. eigenvalues --  -10.19077 -10.19042 -10.19042 -10.18979 -10.18979
 Alpha  occ. eigenvalues --  -10.18971 -10.18970 -10.18968 -10.18967  -0.87727
 Alpha  occ. eigenvalues --   -0.84597  -0.79744  -0.78056  -0.74840  -0.73509
 Alpha  occ. eigenvalues --   -0.70018  -0.64174  -0.61259  -0.59746  -0.58841
 Alpha  occ. eigenvalues --   -0.53747  -0.51831  -0.50105  -0.46343  -0.45959
 Alpha  occ. eigenvalues --   -0.44986  -0.44129  -0.42220  -0.41250  -0.40305
 Alpha  occ. eigenvalues --   -0.39591  -0.38637  -0.37649  -0.35790  -0.34481
 Alpha  occ. eigenvalues --   -0.33326  -0.32440  -0.30024  -0.29528  -0.25382
 Alpha  occ. eigenvalues --   -0.23722  -0.19206
 Alpha virt. eigenvalues --   -0.05994  -0.01048   0.00873   0.04561   0.06839
 Alpha virt. eigenvalues --    0.09933   0.10250   0.11081   0.14152   0.14638
 Alpha virt. eigenvalues --    0.15696   0.16810   0.17133   0.17817   0.18120

 Mulliken atomic charges:
              1
     1  C   -0.139848
     2  C   -0.139848
     3  C   -0.184050
     4  C    0.148189
     5  C   -0.184050
     6  C    0.148189
     7  C   -0.297661
     8  C    0.148188
     9  C   -0.297661
    10  C    0.148188
    11  C   -0.184051
    12  C   -0.139849
    13  C   -0.139849
    14  C   -0.184051
    15  H    0.130199
    16  H    0.130199
    17  H    0.129833
    18  H    0.129833
    19  H    0.129017
    20  H    0.129017
    21  H    0.129833
    22  H    0.130199
    23  H    0.130199
    24  H    0.129833
 Sum of Mulliken atomic charges =   0.00000

 Dipole moment (field-independent basis, Debye):
    X=              0.0000    Y=              0.0000    Z=              0.0000  Tot=              0.0000
 Quadrupole moment (field-independent basis, Debye-Ang):
   XX=            -69.7211   YY=            -70.6206   ZZ=            -85.7919
   XY=              0.0000   XZ=              0.0000   YZ=              0.0000

 Normal termination of Gaussian 09 at Tue Oct  8 20:06:05 2019.
