 Gaussian 09, Revision A.01,
 Gaussian 09:  EM64L-G09RevA.01  8-May-2009

 --------------------------------------------------------
 # cam-b3lyp/aug-cc-pvtz opt Freq=(savenormalmodes,raman)
 --------------------------------------------------------

 -----
 Title
 -----
 Symbolic Z-matrix:
 Charge =  0 Multiplicity = 1

 SCF Done:  E(RCAM-B3LYP) =  -169.897648401     A.U. after   11 cycles
 SCF Done:  E(RCAM-B3LYP) =  -169.897786300     A.U. after    9 cycles
 SCF Done:  E(RCAM-B3LYP) =  -169.897788724     A.U. after    7 cycles
 SCF Done:  E(RCAM-B3LYP) =  -169.897787778     A.U. after   13 cycles
 SCF Done:  E(RCAM-B3LYP) =  -169.897789354     A.U. after   13 cycles
 Optimization completed.
    -- Stationary point found.
 Normal termination of Gaussian 09 at Tue Oct 22 19:17:48 2019.

 ----------------------------------------------------------------------
 #N Geom=AllCheck Guess=TCheck SCRF=Check GenChk RCAM-B3LYP/Aug-CC-pVTZ
  Freq
 ----------------------------------------------------------------------

 Title
 -----
 Redundant internal coordinates taken from checkpoint file:
 freq.chk
 Charge =  0 Multiplicity = 1

                         Standard orientation:
 ---------------------------------------------------------------------
 Center     Atomic      Atomic             Coordinates (Angstroms)
 Number     Number       Type             X           Y           Z
 ---------------------------------------------------------------------
      1          6           0       -0.160857    0.386261   -0.000004
      2          7           0        1.077168   -0.157071   -0.000017
      3          8           0       -1.188063   -0.245846   -0.000027
      4          1           0        1.174650   -1.157961    0.000127
      5          1           0        1.898249    0.418362    0.000231
      6          1           0       -0.143425    1.488304    0.000008
 ---------------------------------------------------------------------

 SCF Done:  E(RCAM-B3LYP) =  -169.897789354     A.U. after    1 cycles

 The electronic state is 1-A.
 Alpha  occ. eigenvalues --  -19.17924 -14.42701 -10.35831  -1.13224  -1.00388
 Alpha  occ. eigenvalues --   -0.71233  -0.64112  -0.56300  -0.49563  -0.49086
 Alpha  occ. eigenvalues --   -0.35291  -0.33707
 Alpha virt. eigenvalues --   -0.00005   0.02006   0.03480   0.04953   0.06515
 Alpha virt. eigenvalues --    0.07640   0.08118   0.09491   0.10447   0.11595
 Alpha virt. eigenvalues --    0.12495   0.13963   0.16981   0.17764   0.18601

 Mulliken atomic charges:
              1
     1  C   -0.010456
     2  N   -0.150386
     3  O   -0.519844
     4  H    0.122763
     5  H    0.084199
     6  H    0.473724
 Sum of Mulliken atomic charges =   0.00000

 Dipole moment (field-independent basis, Debye):
    X=              3.8883    Y=              0.9498    Z=              0.0007  Tot=              4.0027
 Quadrupole moment (field-independent basis, Debye-Ang):
   XX=            -18.3928   YY=            -15.5305   ZZ=            -19.1096
   XY=             -1.3008   XZ=              0.0011   YZ=             -0.0001

  Exact polarizability:  35.045   0.858  27.505   0.000   0.000  19.960
 Approx polarizability:  39.895   2.720  30.464   0.000   0.000  22.453

                     1                      2                      3
                     A                      A                      A
 Frequencies --   271.6272               574.5029               639.3793
 Red. masses --     1.2203                 2.4442                 1.2011
 Frc consts  --     0.0530                 0.4753                 0.2893
 IR Inten    --   210.3318                11.7954                17.9479
 Raman Activ --     0.0285                 1.0696                 0.0412

                     4                      5                      6
                     A                      A                      A
 Frequencies --  1059.4904              1067.2934              1283.0243
 Red. masses --     1.5610                 1.7473                 2.7324
 Frc consts  --     1.0324                 1.1727                 2.6501
 IR Inten    --     1.8013                 4.4918               116.9829
 Raman Activ --     1.3623                 5.3924                 6.4535

                     7                      8                      9
                     A                      A                      A
 Frequencies --  1427.1444              1626.1859              1818.5102
 Red. masses --     1.2144                 1.2424                 7.7913
 Frc consts  --     1.4573                 1.9358                15.1806
 IR Inten    --     5.1095                71.7976               457.8723
 Raman Activ --     5.8475                 3.5788                13.6961

                    10                     11                     12
                     A                      A                      A
 Frequencies --  2981.4022              3607.0082              3743.3399
 Red. masses --     1.0861                 1.0456                 1.1050
 Frc consts  --     5.6880                 8.0151                 9.1229
 IR Inten    --    78.9871                45.8020                53.5171
 Raman Activ --   134.7300               121.5290                42.5022

 - Thermochemistry -
 -------------------
 Temperature   298.150 Kelvin.  Pressure   1.00000 Atm.
 Atom     1 has atomic number  6 and mass  12.00000

 Molecular mass:    45.02146 amu.
 Principal axes and moments of inertia in atomic units:
                           1         2         3
     Eigenvalues --    24.41324 157.14609 181.55933
           X            0.99981  -0.01947  -0.00002
           Y            0.01947   0.99981  -0.00001
           Z            0.00002   0.00001   1.00000
 This molecule is an asymmetric top.
 Rotational symmetry number  1.
 Rotational temperatures (Kelvin)      3.54782     0.55117     0.47706
 Rotational constants (GHZ):          73.92468    11.48448     9.94023
 Zero-point vibrational energy     120218.2 (Joules/Mol)
                                   28.73283 (Kcal/Mol)
 Warning -- explicit consideration of   2 degrees of freedom as
           vibrations may cause significant error
 Vibrational temperatures:    390.81   826.58   919.92  1524.37  1535.60
          (Kelvin)           1845.98  2053.34  2339.72  2616.43  4289.57
                             5189.67  5385.82

 Zero-point correction=                           0.045789 (Hartree/Particle)
 Thermal correction to Energy=                    0.049473
 Thermal correction to Enthalpy=                  0.050417
 Thermal correction to Gibbs Free Energy=         0.021349
 Sum of electronic and zero-point Energies=           -169.852001
 Sum of electronic and thermal Energies=              -169.848317
 Sum of electronic and thermal Enthalpies=            -169.847373
 Sum of electronic and thermal Free Energies=         -169.876440

                     E (Thermal)             CV                S
                      KCal/Mol        Cal/Mol-Kelvin    Cal/Mol-Kelvin
 Total                   31.045             10.674             61.178
 Electronic               0.000              0.000              0.000
 Translational            0.889              2.981             37.339
 Rotational               0.889              2.981             21.171
 Vibrational             29.267              4.712              2.668
 Vibration     1          0.675              1.726              1.586
 Vibration     2          0.931              1.086              0.496

 Optimization completed.
    -- Stationary point found.
 Normal termination of Gaussian 09 at Tue Oct 22 19:26:53 2019.
