 Gaussian 09, Revision A.01,
 Gaussian 09:  EM64L-G09RevA.01  8-May-2009

 --------------------------------------------------------
 # cam-b3lyp/aug-cc-pvtz opt nosymm td(root=1,nstates=20)
 --------------------------------------------------------

 -----
 Title
 -----
 Symbolic Z-matrix:
 Charge =  0 Multiplicity = 1

 SCF Done:  E(RCAM-B3LYP) =  -169.897789354     A.U. after   11 cycles
 SCF Done:  E(RCAM-B3LYP) =  -169.887974589     A.U. after   10 cycles
 SCF Done:  E(RCAM-B3LYP) =  -169.875267065     A.U. after   10 cycles
 SCF Done:  E(RCAM-B3LYP) =  -169.875331123     A.U. after    9 cycles
 SCF Done:  E(RCAM-B3LYP) =  -169.875089540     A.U. after    9 cycles

 Excitation energies and oscillator strengths:

 Excited state symmetry could not be determined.
 Excited State   1:      Singlet-?Sym    4.4914 eV  276.05 nm  f=0.0001  <S**2>=0.000
      12 -> 15         0.69343
 This state for optimization and/or second-order correction.
 Copying the excited state density for this state as the 1-particle RhoCI density.

 Excited state symmetry could not be determined.
 Excited State   2:      Singlet-?Sym    6.2841 eV  197.30 nm  f=0.0333  <S**2>=0.000
      11 -> 15        -0.48827
      12 -> 13         0.45774
      12 -> 16         0.10703

 Excited state symmetry could not be determined.
 Excited State   3:      Singlet-?Sym    6.4416 eV  192.48 nm  f=0.0092  <S**2>=0.000
      11 -> 13        -0.66451
      11 -> 18        -0.12253
      11 -> 19         0.11889

 Excited state symmetry could not be determined.
 Excited State   4:      Singlet-?Sym    6.7666 eV  183.23 nm  f=0.1632  <S**2>=0.000
      11 -> 15        -0.40204
      12 -> 13        -0.41743
      12 -> 14         0.28044
      12 -> 16        -0.19194
      12 -> 21        -0.11247

 Excited state symmetry could not be determined.
 Excited State   5:      Singlet-?Sym    7.0509 eV  175.84 nm  f=0.0673  <S**2>=0.000
      11 -> 15         0.22002
      12 -> 13         0.17318
      12 -> 14         0.60505
      12 -> 19        -0.12745
      12 -> 21        -0.14143

 Excited state symmetry could not be determined.
 Excited State   6:      Singlet-?Sym    7.1951 eV  172.32 nm  f=0.0010  <S**2>=0.000
      11 -> 14        -0.64901
      11 -> 16        -0.12314
      11 -> 21         0.20661

 Excited state symmetry could not be determined.
 Excited State   7:      Singlet-?Sym    7.4216 eV  167.06 nm  f=0.0377  <S**2>=0.000
      11 -> 15        -0.10015
      12 -> 13        -0.25093
      12 -> 16         0.56790
      12 -> 18        -0.22362
      12 -> 19        -0.17043

 Excited state symmetry could not be determined.
 Excited State   8:      Singlet-?Sym    7.7026 eV  160.96 nm  f=0.0147  <S**2>=0.000
      11 -> 14         0.12808
      11 -> 16        -0.63996
      11 -> 18         0.10961
      11 -> 19         0.10796
      11 -> 23         0.16542

 Excited state symmetry could not be determined.
 Excited State   9:      Singlet-?Sym    7.8852 eV  157.24 nm  f=0.0028  <S**2>=0.000
      12 -> 17         0.69108

 Excited state symmetry could not be determined.
 Excited State  10:      Singlet-?Sym    8.1662 eV  151.83 nm  f=0.0143  <S**2>=0.000
      11 -> 15        -0.12299
      11 -> 17        -0.68067

 Excited state symmetry could not be determined.
 Excited State  11:      Singlet-?Sym    8.3108 eV  149.18 nm  f=0.0081  <S**2>=0.000
      12 -> 16         0.29730
      12 -> 18         0.38608
      12 -> 19         0.46607
      12 -> 24        -0.10150
      12 -> 28         0.11233

 Excited state symmetry could not be determined.
 Excited State  12:      Singlet-?Sym    8.4817 eV  146.18 nm  f=0.0030  <S**2>=0.000
       9 -> 15         0.67413
      11 -> 18         0.12942

 Excited state symmetry could not be determined.
 Excited State  13:      Singlet-?Sym    8.5568 eV  144.90 nm  f=0.0104  <S**2>=0.000
       9 -> 15         0.15052
      11 -> 16        -0.11685
      11 -> 18        -0.51123
      11 -> 19        -0.36424
      11 -> 24         0.18163
      11 -> 28        -0.11602

 Excited state symmetry could not be determined.
 Excited State  14:      Singlet-?Sym    8.6149 eV  143.92 nm  f=0.0002  <S**2>=0.000
      12 -> 14         0.13927
      12 -> 18        -0.42732
      12 -> 19         0.39811
      12 -> 20        -0.32765

 Excited state symmetry could not be determined.
 Excited State  15:      Singlet-?Sym    8.7758 eV  141.28 nm  f=0.0004  <S**2>=0.000
      11 -> 13        -0.11203
      11 -> 18         0.32642
      11 -> 19        -0.52006
      11 -> 20         0.26593

 Excited state symmetry could not be determined.
 Excited State  16:      Singlet-?Sym    9.2333 eV  134.28 nm  f=0.0280  <S**2>=0.000
      12 -> 13         0.12169
      12 -> 18        -0.24005
      12 -> 19         0.15081
      12 -> 20         0.52638
      12 -> 21        -0.23224
      12 -> 23         0.21647

 Excited state symmetry could not be determined.
 Excited State  17:      Singlet-?Sym    9.2752 eV  133.67 nm  f=0.0005  <S**2>=0.000
      10 -> 13        -0.13460
      11 -> 13        -0.18202
      11 -> 18         0.14876
      11 -> 19        -0.16674
      11 -> 20        -0.59709

 Excited state symmetry could not be determined.
 Excited State  18:      Singlet-?Sym    9.3243 eV  132.97 nm  f=0.0040  <S**2>=0.000
      10 -> 15        -0.10885
      12 -> 14         0.16058
      12 -> 19         0.10519
      12 -> 20         0.23888
      12 -> 21         0.60073
      12 -> 26         0.13824

 Excited state symmetry could not be determined.
 Excited State  19:      Singlet-?Sym    9.4806 eV  130.78 nm  f=0.0028  <S**2>=0.000
      11 -> 14        -0.19435
      11 -> 21        -0.56366
      11 -> 23        -0.24556
      11 -> 24         0.12928

 Excited state symmetry could not be determined.
 Excited State  20:      Singlet-?Sym    9.4823 eV  130.75 nm  f=0.0328  <S**2>=0.000
      10 -> 15        -0.19897
      12 -> 19        -0.10571
      12 -> 20        -0.14453
      12 -> 23         0.44772
      12 -> 24        -0.41559
      12 -> 27         0.11096

 Optimization completed.
    -- Stationary point found.

                          Input orientation:
 ---------------------------------------------------------------------
 Center     Atomic      Atomic             Coordinates (Angstroms)
 Number     Number       Type             X           Y           Z
 ---------------------------------------------------------------------
      1          6           0       -0.117686    0.470953    0.000107
      2          7           0        1.101079   -0.168163   -0.001012
      3          8           0       -1.197680   -0.309704   -0.000048
      4          1           0        1.154854   -1.166927    0.000608
      5          1           0        1.945978    0.365124    0.000520
      6          1           0       -0.228822    1.540767    0.000142
 ---------------------------------------------------------------------

 Alpha  occ. eigenvalues --  -19.17621 -14.43907 -10.37666  -1.08008  -0.98968
 Alpha  occ. eigenvalues --   -0.72434  -0.63875  -0.58030  -0.47078  -0.46775
 Alpha  occ. eigenvalues --   -0.33937  -0.32705
 Alpha virt. eigenvalues --   -0.00208   0.01880   0.01973   0.03420   0.06284
 Alpha virt. eigenvalues --    0.07464   0.08116   0.09417   0.10216   0.11380
 Alpha virt. eigenvalues --    0.12511   0.13932   0.16931   0.17382   0.18479

 Mulliken atomic charges:
              1
     1  C   -0.009433
     2  N   -0.140859
     3  O   -0.566661
     4  H    0.124113
     5  H    0.079645
     6  H    0.513196
 Sum of Mulliken atomic charges =   0.00000

 Dipole moment (field-independent basis, Debye):
    X=              4.3219    Y=              1.4404    Z=              0.0046  Tot=              4.5556
 Quadrupole moment (field-independent basis, Debye-Ang):
   XX=            -18.7294   YY=            -14.9166   ZZ=            -19.4339
   XY=             -1.7716   XZ=              0.0074   YZ=             -0.0017

 Normal termination of Gaussian 09 at Fri Oct 25 16:07:26 2019.
