 Gaussian 09, Revision A.01,
 Gaussian 09:  EM64L-G09RevA.01  8-May-2009

 ----------------------------------------------------------------------
 # cam-b3lyp/aug-cc-pvtz nosymm td(root=7,nstates=20) opt integral=(gri
 d=ultrafine)
 ----------------------------------------------------------------------

 -----
 Title
 -----
 Symbolic Z-matrix:
 Charge =  0 Multiplicity = 1

 SCF Done:  E(RCAM-B3LYP) =  -169.889804721     A.U. after   11 cycles
 SCF Done:  E(RCAM-B3LYP) =  -169.891856818     A.U. after   11 cycles
 SCF Done:  E(RCAM-B3LYP) =  -169.889058377     A.U. after   11 cycles
 SCF Done:  E(RCAM-B3LYP) =  -169.890934767     A.U. after   10 cycles
 SCF Done:  E(RCAM-B3LYP) =  -169.891076597     A.U. after   10 cycles
 SCF Done:  E(RCAM-B3LYP) =  -169.890817052     A.U. after    9 cycles
 SCF Done:  E(RCAM-B3LYP) =  -169.890659554     A.U. after    9 cycles
 SCF Done:  E(RCAM-B3LYP) =  -169.890583077     A.U. after   10 cycles
 SCF Done:  E(RCAM-B3LYP) =  -169.890621540     A.U. after   10 cycles
 SCF Done:  E(RCAM-B3LYP) =  -169.890706220     A.U. after    8 cycles
 SCF Done:  E(RCAM-B3LYP) =  -169.890747820     A.U. after    8 cycles

 Excitation energies and oscillator strengths:

 Excited state symmetry could not be determined.
 Excited State   1:      Singlet-?Sym    5.1448 eV  240.99 nm  f=0.0003  <S**2>=0.000
      12 -> 16         0.66593
      12 -> 17        -0.19091
      12 -> 22         0.10241

 Excited state symmetry could not be determined.
 Excited State   2:      Singlet-?Sym    6.4312 eV  192.79 nm  f=0.0016  <S**2>=0.000
      11 -> 16        -0.21639
      12 -> 13         0.61941
      12 -> 15         0.16580
      12 -> 19        -0.11358

 Excited state symmetry could not be determined.
 Excited State   3:      Singlet-?Sym    6.5418 eV  189.53 nm  f=0.0095  <S**2>=0.000
      11 -> 13         0.66504
      11 -> 18         0.13943
      11 -> 19        -0.10983

 Excited state symmetry could not be determined.
 Excited State   4:      Singlet-?Sym    6.9479 eV  178.45 nm  f=0.0574  <S**2>=0.000
      11 -> 16        -0.13770
      12 -> 14         0.64311
      12 -> 18         0.11585
      12 -> 21        -0.16753

 Excited state symmetry could not be determined.
 Excited State   5:      Singlet-?Sym    7.2891 eV  170.10 nm  f=0.0007  <S**2>=0.000
      11 -> 14         0.64587
      11 -> 15         0.12869
      11 -> 21        -0.21369

 Excited state symmetry could not be determined.
 Excited State   6:      Singlet-?Sym    7.3014 eV  169.81 nm  f=0.1412  <S**2>=0.000
      11 -> 16        -0.44506
      11 -> 17         0.18254
      12 -> 14        -0.16636
      12 -> 15        -0.39778
      12 -> 18         0.18251
      12 -> 19         0.15327

 Excited state symmetry could not be determined.
 Excited State   7:      Singlet-?Sym    7.4755 eV  165.85 nm  f=0.1335  <S**2>=0.000
      11 -> 16        -0.36327
      11 -> 17         0.15488
      12 -> 13        -0.29804
      12 -> 15         0.45442
      12 -> 19        -0.12046
 This state for optimization and/or second-order correction.
 Copying the excited state density for this state as the 1-particle RhoCI density.

 Excited state symmetry could not be determined.
 Excited State   8:      Singlet-?Sym    7.8213 eV  158.52 nm  f=0.0065  <S**2>=0.000
      12 -> 16         0.19379
      12 -> 17         0.66881

 Excited state symmetry could not be determined.
 Excited State   9:      Singlet-?Sym    7.8551 eV  157.84 nm  f=0.0110  <S**2>=0.000
      11 -> 14        -0.13661
      11 -> 15         0.64046
      11 -> 19        -0.11439
      11 -> 23        -0.16467

 Excited state symmetry could not be determined.
 Excited State  10:      Singlet-?Sym    8.2565 eV  150.17 nm  f=0.0113  <S**2>=0.000
      11 -> 16         0.23874
      11 -> 17         0.64628

 Excited state symmetry could not be determined.
 Excited State  11:      Singlet-?Sym    8.3630 eV  148.25 nm  f=0.0110  <S**2>=0.000
      12 -> 15         0.26589
      12 -> 18         0.30726
      12 -> 19         0.53951

 Excited state symmetry could not be determined.
 Excited State  12:      Singlet-?Sym    8.6159 eV  143.90 nm  f=0.0005  <S**2>=0.000
      11 -> 16         0.11998
      12 -> 14        -0.13947
      12 -> 18         0.46340
      12 -> 19        -0.30382
      12 -> 20         0.36570

 Excited state symmetry could not be determined.
 Excited State  13:      Singlet-?Sym    8.7654 eV  141.45 nm  f=0.0124  <S**2>=0.000
      11 -> 15         0.10012
      11 -> 18         0.49594
      11 -> 19         0.41082
      11 -> 24        -0.19014

 Excited state symmetry could not be determined.
 Excited State  14:      Singlet-?Sym    8.9169 eV  139.04 nm  f=0.0010  <S**2>=0.000
      11 -> 13         0.11640
      11 -> 18        -0.35683
      11 -> 19         0.49326
      11 -> 20        -0.27163

 Excited state symmetry could not be determined.
 Excited State  15:      Singlet-?Sym    9.1806 eV  135.05 nm  f=0.0352  <S**2>=0.000
      12 -> 13         0.12364
      12 -> 18        -0.29307
      12 -> 19         0.14009
      12 -> 20         0.51527
      12 -> 21        -0.21034
      12 -> 23         0.20091

 Excited state symmetry could not be determined.
 Excited State  16:      Singlet-?Sym    9.3171 eV  133.07 nm  f=0.0007  <S**2>=0.000
      10 -> 16         0.60300
      10 -> 17        -0.17055
      11 -> 20         0.20775

 Excited state symmetry could not be determined.
 Excited State  17:      Singlet-?Sym    9.3323 eV  132.85 nm  f=0.0162  <S**2>=0.000
      12 -> 14         0.16391
      12 -> 19         0.12399
      12 -> 20         0.23421
      12 -> 21         0.60266
      12 -> 24         0.10999
      12 -> 26         0.10013

 Excited state symmetry could not be determined.
 Excited State  18:      Singlet-?Sym    9.3759 eV  132.24 nm  f=0.0000  <S**2>=0.000
      10 -> 16        -0.26274
      11 -> 13         0.16596
      11 -> 18        -0.14849
      11 -> 19         0.14256
      11 -> 20         0.55785

 Excited state symmetry could not be determined.
 Excited State  19:      Singlet-?Sym    9.4661 eV  130.98 nm  f=0.0191  <S**2>=0.000
      12 -> 21         0.16439
      12 -> 23         0.50701
      12 -> 24        -0.39460
      12 -> 26         0.11892

 Excited state symmetry could not be determined.
 Excited State  20:      Singlet-?Sym    9.4741 eV  130.87 nm  f=0.0040  <S**2>=0.000
      12 -> 22         0.68699

 Optimization completed.
    -- Stationary point found.

                          Input orientation:
 ---------------------------------------------------------------------
 Center     Atomic      Atomic             Coordinates (Angstroms)
 Number     Number       Type             X           Y           Z
 ---------------------------------------------------------------------
      1          6           0       -0.108799    0.423423   -0.001140
      2          7           0        1.076063   -0.151139    0.000576
      3          8           0       -1.164512   -0.278936    0.002311
      4          1           0        1.136157   -1.160881    0.004160
      5          1           0        1.929990    0.390332   -0.000545
      6          1           0       -0.211176    1.509251   -0.005044
 ---------------------------------------------------------------------

 Alpha  occ. eigenvalues --  -19.16883 -14.43672 -10.35997  -1.10621  -1.00381
 Alpha  occ. eigenvalues --   -0.71937  -0.64741  -0.57200  -0.48482  -0.47551
 Alpha  occ. eigenvalues --   -0.34442  -0.32666
 Alpha virt. eigenvalues --   -0.00218   0.01915   0.03438   0.04182   0.06243
 Alpha virt. eigenvalues --    0.07578   0.08160   0.09339   0.10227   0.11555
 Alpha virt. eigenvalues --    0.12468   0.13804   0.17034   0.17673   0.18642

 Mulliken atomic charges:
              1
     1  C   -0.013029
     2  N   -0.134772
     3  O   -0.563787
     4  H    0.128690
     5  H    0.083643
     6  H    0.499256
 Sum of Mulliken atomic charges =   0.00000

 Dipole moment (field-independent basis, Debye):
    X=              4.3258    Y=              1.1685    Z=             -0.0051  Tot=              4.4809
 Quadrupole moment (field-independent basis, Debye-Ang):
   XX=            -18.3601   YY=            -15.2852   ZZ=            -19.1820
   XY=             -1.6096   XZ=              0.0129   YZ=             -0.0114

 Normal termination of Gaussian 09 at Fri Oct 25 14:47:26 2019.
