 Gaussian 09, Revision A.01,
 Gaussian 09:  EM64L-G09RevA.01  8-May-2009

 -----------------------------------------
 # eomccsd(nstates=5,root=1)/6-31G* nosymm
 -----------------------------------------

 -----
 Title
 -----
 Symbolic Z-matrix:
 Charge =  0 Multiplicity = 1

                          Input orientation:
 ---------------------------------------------------------------------
 Center     Atomic      Atomic             Coordinates (Angstroms)
 Number     Number       Type             X           Y           Z
 ---------------------------------------------------------------------
      1          6           0       -0.160335    0.390502    0.000016
      2          7           0        1.085620   -0.158481   -0.000132
      3          8           0       -1.199442   -0.246944    0.000035
      4          1           0        1.177364   -1.165444    0.000181
      5          1           0        1.918391    0.410991    0.000339
      6          1           0       -0.137551    1.496358    0.000024
 ---------------------------------------------------------------------

 SCF Done:  E(RHF) =  -168.928570814     A.U. after   13 cycles
 E2 =    -0.4658291455D+00 EUMP2 =    -0.16939439995980D+03

 Excitation energies and oscillator strengths:

 ----------------------------------------------
 Excited State   1:      Singlet-A      5.8393 eV  212.33 nm  f=0.0010
 Right Eigenvector
 Alpha Singles Amplitudes
     I    SymI    A    SymA    Value
    11      1    13      1    0.672883
 Beta  Singles Amplitudes
     I    SymI    A    SymA    Value
    11      1    13      1    0.672883
 Left  Eigenvector
 Alpha Singles Amplitudes
     I    SymI    A    SymA    Value
    11      1    13      1    0.669011
 Beta  Singles Amplitudes
     I    SymI    A    SymA    Value
    11      1    13      1    0.669011
 Total Energy, E(EOM-CCSD) =  -169.196179592

 ----------------------------------------------
 Excited State   2:      Singlet-A      8.0411 eV  154.19 nm  f=0.1645
 Right Eigenvector
 Alpha Singles Amplitudes
     I    SymI    A    SymA    Value
    11      1    14      1    0.250376
    12      1    13      1    0.605996
 Beta  Singles Amplitudes
     I    SymI    A    SymA    Value
    11      1    14      1    0.250376
    12      1    13      1    0.605996
 Alpha-Beta  Doubles Amplitudes
     I    SymI    J    SymJ    A    SymA    B    SymB    Value
    10      1    12      1    13      1    13      1   -0.134445
    12      1    10      1    13      1    13      1   -0.134445
 Left  Eigenvector
 Alpha Singles Amplitudes
     I    SymI    A    SymA    Value
    11      1    14      1    0.229680
    12      1    13      1    0.608640
 Beta  Singles Amplitudes
     I    SymI    A    SymA    Value
    11      1    14      1    0.229680
    12      1    13      1    0.608640
 Alpha-Beta  Doubles Amplitudes
     I    SymI    J    SymJ    A    SymA    B    SymB    Value
    10      1    12      1    13      1    13      1   -0.133987
    12      1    10      1    13      1    13      1   -0.133987

 ----------------------------------------------
 Excited State   3:      Singlet-A      8.6854 eV  142.75 nm  f=0.0034
 Right Eigenvector
 Alpha Singles Amplitudes
     I    SymI    A    SymA    Value
    10      1    14      1    0.128857
    12      1    14      1    0.667994
 Beta  Singles Amplitudes
     I    SymI    A    SymA    Value
    10      1    14      1    0.128857
    12      1    14      1    0.667994
 Left  Eigenvector
 Alpha Singles Amplitudes
     I    SymI    A    SymA    Value
    10      1    14      1    0.139839
    12      1    14      1    0.661846
 Beta  Singles Amplitudes
     I    SymI    A    SymA    Value
    10      1    14      1    0.139839
    12      1    14      1    0.661846

 ----------------------------------------------
 Excited State   4:      Singlet-A      9.6569 eV  128.39 nm  f=0.0003
 Right Eigenvector
 Alpha Singles Amplitudes
     I    SymI    A    SymA    Value
    12      1    15      1   -0.655106
    12      1    16      1    0.132963
 Beta  Singles Amplitudes
     I    SymI    A    SymA    Value
    12      1    15      1   -0.655106
    12      1    16      1    0.132963
 Left  Eigenvector
 Alpha Singles Amplitudes
     I    SymI    A    SymA    Value
    10      1    15      1   -0.107654
    12      1    15      1   -0.649072
    12      1    16      1    0.131869
 Beta  Singles Amplitudes
     I    SymI    A    SymA    Value
    10      1    15      1   -0.107654
    12      1    15      1   -0.649072
    12      1    16      1    0.131869

 ----------------------------------------------
 Excited State   5:      Singlet-A      9.7127 eV  127.65 nm  f=0.2799
 Right Eigenvector
 Alpha Singles Amplitudes
     I    SymI    A    SymA    Value
    11      1    14      1    0.610983
    11      1    15      1    0.102771
    12      1    13      1   -0.223863
 Beta  Singles Amplitudes
     I    SymI    A    SymA    Value
    11      1    14      1    0.610983
    11      1    15      1    0.102771
    12      1    13      1   -0.223863
 Alpha-Beta  Doubles Amplitudes
     I    SymI    J    SymJ    A    SymA    B    SymB    Value
    11      1    12      1    14      1    13      1    0.110939
    12      1    11      1    13      1    14      1    0.110939
 Left  Eigenvector
 Alpha Singles Amplitudes
     I    SymI    A    SymA    Value
    11      1    14      1    0.592667
    12      1    13      1   -0.235551
 Beta  Singles Amplitudes
     I    SymI    A    SymA    Value
    11      1    14      1    0.592667
    12      1    13      1   -0.235551
 Alpha-Alpha Doubles Amplitudes
     I    SymI    J    SymJ    A    SymA    B    SymB    Value
    11      1    12      1    13      1    14      1   -0.104710
 Alpha-Beta  Doubles Amplitudes
     I    SymI    J    SymJ    A    SymA    B    SymB    Value
    11      1    12      1    14      1    13      1    0.125735
    12      1    11      1    13      1    14      1    0.125735
  Beta-Beta  Doubles Amplitudes
     I    SymI    J    SymJ    A    SymA    B    SymB    Value
    11      1    12      1    13      1    14      1   -0.104710
 Ground to excited state transition densities written to RWF  633

 Alpha  occ. eigenvalues --  -20.53213 -15.59768 -11.35876  -1.37626  -1.21313
 Alpha  occ. eigenvalues --   -0.84701  -0.74550  -0.66756  -0.60038  -0.56307
 Alpha  occ. eigenvalues --   -0.42852  -0.41268
 Alpha virt. eigenvalues --    0.20137   0.21570   0.25363   0.31112   0.42636
 Alpha virt. eigenvalues --    0.53626   0.75294   0.75854   0.85926   0.91955
 Alpha virt. eigenvalues --    0.96006   0.96437   1.06634   1.11700   1.15371

 Mulliken atomic charges:
              1
     1  C    0.515480
     2  N   -0.889092
     3  O   -0.570815
     4  H    0.401651
     5  H    0.391048
     6  H    0.151728
 Sum of Mulliken atomic charges =   0.00000

 Dipole moment (field-independent basis, Debye):
    X=              4.0684    Y=              1.1785    Z=              0.0015  Tot=              4.2357
 Quadrupole moment (field-independent basis, Debye-Ang):
   XX=            -18.0651   YY=            -14.6893   ZZ=            -18.6512
   XY=             -1.2013   XZ=              0.0027   YZ=             -0.0002

 Normal termination of Gaussian 09 at Mon Oct 21 18:27:33 2019.
