 Gaussian 09, Revision A.01,
 Gaussian 09:  EM64L-G09RevA.01  8-May-2009

 ------------------------------------------------------
 # b3lyp/6-31G* opt Freq=(savenormalmodes,raman) nosymm
 ------------------------------------------------------

 -----
 Title
 -----
 Symbolic Z-matrix:
 Charge =  0 Multiplicity = 1

 SCF Done:  E(RB3LYP) =  -169.888476581     A.U. after   13 cycles
 SCF Done:  E(RB3LYP) =  -169.888840857     A.U. after   11 cycles
 SCF Done:  E(RB3LYP) =  -169.888843117     A.U. after    7 cycles
 Optimization completed.
    -- Stationary point found.
 Normal termination of Gaussian 09 at Tue Oct  8 22:31:20 2019.

 --------------------------------------------------------------------
 #N Geom=AllCheck Guess=TCheck SCRF=Check GenChk RB3LYP/6-31G(d) Freq
 --------------------------------------------------------------------

 Title
 -----
 Redundant internal coordinates taken from checkpoint file:
 freq.chk
 Charge =  0 Multiplicity = 1

                          Input orientation:
 ---------------------------------------------------------------------
 Center     Atomic      Atomic             Coordinates (Angstroms)
 Number     Number       Type             X           Y           Z
 ---------------------------------------------------------------------
      1          6           0       -0.156889    0.390045   -0.000131
      2          7           0        1.089296   -0.159784   -0.000104
      3          8           0       -1.197403   -0.239352    0.000060
      4          1           0        1.183547   -1.166356    0.000180
      5          1           0        1.922150    0.409615    0.000312
      6          1           0       -0.120731    1.498015    0.000069
 ---------------------------------------------------------------------

 SCF Done:  E(RB3LYP) =  -169.888843117     A.U. after    1 cycles

 Alpha  occ. eigenvalues --  -19.11686 -14.36582 -10.28951  -1.03142  -0.90947
 Alpha  occ. eigenvalues --   -0.62737  -0.55760  -0.47945  -0.40986  -0.40080
 Alpha  occ. eigenvalues --   -0.27246  -0.25472
 Alpha virt. eigenvalues --    0.02973   0.07205   0.10850   0.16341   0.26882
 Alpha virt. eigenvalues --    0.34266   0.53538   0.55334   0.64882   0.67851
 Alpha virt. eigenvalues --    0.69581   0.71105   0.83986   0.86054   0.87032

 Mulliken atomic charges:
              1
     1  C    0.362830
     2  N   -0.698166
     3  O   -0.447731
     4  H    0.343848
     5  H    0.336580
     6  H    0.102638
 Sum of Mulliken atomic charges =   0.00000

 Dipole moment (field-independent basis, Debye):
    X=              3.7646    Y=              0.7235    Z=              0.0009  Tot=              3.8335
 Quadrupole moment (field-independent basis, Debye-Ang):
   XX=            -17.2236   YY=            -15.0388   ZZ=            -18.4040
   XY=             -1.0619   XZ=              0.0022   YZ=             -0.0002

  Exact polarizability:  28.445   0.751  21.577   0.000   0.000   9.665
 Approx polarizability:  46.497   4.622  28.839  -0.003  -0.001  12.921

                     1                      2                      3
                     A                      A                      A
 Frequencies --    74.7943               564.3098               651.8127
 Red. masses --     1.2279                 2.4423                 1.2081
 Frc consts  --     0.0040                 0.4582                 0.3024
 IR Inten    --   265.5277                11.4537                19.7945
 Raman Activ --     0.6795                 1.4254                 1.6501

                     4                      5                      6
                     A                      A                      A
 Frequencies --  1045.2212              1060.5587              1281.6991
 Red. masses --     1.5393                 1.7587                 2.8121
 Frc consts  --     0.9908                 1.1655                 2.7218
 IR Inten    --     0.0636                 2.8863                96.4700
 Raman Activ --     3.1741                 6.0653                 3.8997

                     7                      8                      9
                     A                      A                      A
 Frequencies --  1437.1337              1639.1504              1838.8644
 Red. masses --     1.2105                 1.2392                 7.2636
 Frc consts  --     1.4730                 1.9616                14.4710
 IR Inten    --     5.0013                65.2347               356.5048
 Raman Activ --     8.4911                 5.6873                 6.8743

                    10                     11                     12
                     A                      A                      A
 Frequencies --  2965.2166              3586.5430              3717.9940
 Red. masses --     1.0861                 1.0453                 1.1053
 Frc consts  --     5.6264                 7.9218                 9.0021
 IR Inten    --   113.8470                29.6125                33.6252
 Raman Activ --   113.0796               113.1225                59.0728

 - Thermochemistry -
 -------------------
 Temperature   298.150 Kelvin.  Pressure   1.00000 Atm.
 Atom     1 has atomic number  6 and mass  12.00000

 Molecular mass:    45.02146 amu.
 Principal axes and moments of inertia in atomic units:
                           1         2         3
     Eigenvalues --    24.57921 160.09965 184.67886
           X            0.99988  -0.01563   0.00004
           Y            0.01563   0.99988   0.00009
           Z           -0.00004  -0.00008   1.00000
 This molecule is an asymmetric top.
 Rotational symmetry number  1.
 Rotational temperatures (Kelvin)      3.52387     0.54100     0.46900
 Rotational constants (GHZ):          73.42552    11.27261     9.77232
 Zero-point vibrational energy     118808.9 (Joules/Mol)
                                   28.39601 (Kcal/Mol)
 Warning -- explicit consideration of   2 degrees of freedom as
           vibrations may cause significant error
 Vibrational temperatures:    107.61   811.91   937.81  1503.84  1525.91
          (Kelvin)           1844.08  2067.71  2358.37  2645.71  4266.28
                             5160.23  5349.36

 Zero-point correction=                           0.045252 (Hartree/Particle)
 Thermal correction to Energy=                    0.049265
 Thermal correction to Enthalpy=                  0.050209
 Thermal correction to Gibbs Free Energy=         0.019960
 Sum of electronic and zero-point Energies=           -169.843591
 Sum of electronic and thermal Energies=              -169.839578
 Sum of electronic and thermal Enthalpies=            -169.838634
 Sum of electronic and thermal Free Energies=         -169.868883

                     E (Thermal)             CV                S
                      KCal/Mol        Cal/Mol-Kelvin    Cal/Mol-Kelvin
 Total                   30.914             10.924             63.664
 Electronic               0.000              0.000              0.000
 Translational            0.889              2.981             37.339
 Rotational               0.889              2.981             21.213
 Vibrational             29.137              4.963              5.112
 Vibration     1          0.599              1.966              4.023
 Vibration     2          0.920              1.108              0.515

 Optimization completed.
    -- Stationary point found.
 Normal termination of Gaussian 09 at Tue Oct  8 22:31:26 2019.
