 Gaussian 09, Revision A.01,
 Gaussian 09:  EM64L-G09RevA.01  8-May-2009

 -------------------------------------------
 # pbepbe/sto-3g opt(maxcycles=500) SCRF=PCM
 -------------------------------------------

 -----
 Title
 -----
 Symbolic Z-matrix:
 Charge =  0 Multiplicity = 1

 SCF Done:  E(RPBE-PBE) =  -1925.37999901     A.U. after   18 cycles
 SCF Done:  E(RPBE-PBE) =  -1925.37817946     A.U. after   12 cycles
 SCF Done:  E(RPBE-PBE) =  -1925.38002583     A.U. after   12 cycles
 SCF Done:  E(RPBE-PBE) =  -1925.37969180     A.U. after   12 cycles
 SCF Done:  E(RPBE-PBE) =  -1925.38010294     A.U. after   11 cycles
 SCF Done:  E(RPBE-PBE) =  -1925.38018963     A.U. after   11 cycles
 SCF Done:  E(RPBE-PBE) =  -1925.38021133     A.U. after   11 cycles
 SCF Done:  E(RPBE-PBE) =  -1925.38022807     A.U. after   11 cycles
 SCF Done:  E(RPBE-PBE) =  -1925.38024865     A.U. after   11 cycles
 SCF Done:  E(RPBE-PBE) =  -1925.38027181     A.U. after   10 cycles
 SCF Done:  E(RPBE-PBE) =  -1925.38031176     A.U. after   11 cycles
 SCF Done:  E(RPBE-PBE) =  -1925.38032427     A.U. after   11 cycles
 SCF Done:  E(RPBE-PBE) =  -1925.38032575     A.U. after   10 cycles
 SCF Done:  E(RPBE-PBE) =  -1925.38032102     A.U. after   10 cycles
 SCF Done:  E(RPBE-PBE) =  -1925.38032601     A.U. after   10 cycles
 SCF Done:  E(RPBE-PBE) =  -1925.38032609     A.U. after    8 cycles
 SCF Done:  E(RPBE-PBE) =  -1925.38032611     A.U. after    9 cycles
 SCF Done:  E(RPBE-PBE) =  -1925.38032613     A.U. after    8 cycles
 SCF Done:  E(RPBE-PBE) =  -1925.38032615     A.U. after    8 cycles
 SCF Done:  E(RPBE-PBE) =  -1925.38032619     A.U. after    7 cycles
 Optimization completed.
    -- Stationary point found.

                         Standard orientation:
 ---------------------------------------------------------------------
 Center     Atomic      Atomic             Coordinates (Angstroms)
 Number     Number       Type             X           Y           Z
 ---------------------------------------------------------------------
      1          6           0       -1.104830   -2.280780   -0.200127
      2          7           0        0.960909   -0.897272   -0.293436
      3          6           0        0.305093   -2.154036   -0.354400
      4          6           0        1.293779   -3.203870   -0.555965
      5          6           0        2.552475   -2.576293   -0.589114
      6          6           0        2.342124   -1.128703   -0.410797
      7          6           0        3.876017   -3.283717   -0.872532
      8          6           0        0.979135   -4.688926   -0.765338
      9          6           0        0.519213   -5.466606    0.524140
     10          6           0       -1.037666   -5.524999    0.792524
     11          8           0       -1.574497   -6.032112    1.822487
     12          8           0       -1.786654   -4.973229   -0.283000
     13          6           0        3.233308    0.026047   -0.401123
     14          7           0        5.536967   -0.857742    0.233960
     15          6           0        4.599190    0.135844   -0.154521
     16          6           0        5.354079    1.424380   -0.234168
     17          6           0        6.661187    1.201532    0.138147
     18          6           0        6.853947   -0.262125    0.509516
     19          6           0        4.717794    2.737061   -0.680400
     20          6           0        7.815781    2.201617    0.208535
     21          6           0        9.026223    1.760706   -0.672329
     22          8           0        7.864076   -0.895674    0.948612
     23          7           0       -3.801679    3.851977   -0.415144
     24          6           0       -4.212477    5.224743   -0.693214
     25          6           0       -3.005890    6.130046   -0.230190
     26          6           0       -1.882063    5.142625    0.260808
     27          6           0       -2.484707    3.719890    0.084422
     28          6           0       -2.548757    7.067052   -1.387706
     29          6           0       -1.438873    5.409633    1.740566
     30          6           0       -0.709404    6.771592    1.906168
     31          8           0       -5.320163    5.551256   -1.198230
     32          6           0       -1.778448    2.564676    0.344386
     33          7           0       -1.206127    0.183513    0.036902
     34          6           0       -2.184055    1.156798    0.257101
     35          6           0       -3.479500    0.479052    0.436494
     36          6           0       -3.268307   -0.903427    0.296690
     37          6           0       -1.847748   -1.092611    0.029003
     38          6           0       -4.802882    1.130153    0.834581
     39          6           0       -4.271989   -2.038998    0.507602
     40          6           0       -4.558560   -2.857437   -0.805494
     41          6           0       -5.162521   -4.258818   -0.489855
     42          8           0       -6.257157   -4.770741   -0.833280
     43          8           0       -4.236938   -4.999985    0.376729
     44          1           0       -1.531843   -3.329142   -0.250719
     45          1           0        4.572499   -2.631487   -1.433732
     46          1           0        4.383941   -3.609745    0.060791
     47          1           0        3.701865   -4.195334   -1.476571
     48          1           0        0.177591   -4.794974   -1.528921
     49          1           0        1.883966   -5.192490   -1.164793
     50          1           0        0.866277   -6.521289    0.443176
     51          1           0        1.007452   -5.047308    1.430471
     52          1           0       -2.817718   -5.057312    0.027526
     53          1           0        2.718691    0.989487   -0.566732
     54          1           0        5.249776   -1.807894    0.575250
     55          1           0        5.465174    3.552086   -0.686540
     56          1           0        4.293311    2.644623   -1.700781
     57          1           0        3.891742    3.028107    0.000427
     58          1           0        7.465296    3.206517   -0.105746
     59          1           0        8.160090    2.287974    1.263977
     60          1           0        9.854125    2.489304   -0.576593
     61          1           0        9.388817    0.767134   -0.347071
     62          1           0        8.735469    1.698493   -1.737897
     63          1           0       -4.384181    3.022983   -0.695586
     64          1           0       -3.362820    6.756838    0.619117
     65          1           0       -0.986169    5.233633   -0.395602
     66          1           0       -1.760065    7.757395   -1.032458
     67          1           0       -2.145045    6.478396   -2.232977
     68          1           0       -3.404063    7.668119   -1.753100
     69          1           0       -2.331673    5.377869    2.399475
     70          1           0       -0.761390    4.590036    2.060806
     71          1           0       -0.380617    6.902759    2.954835
     72          1           0        0.182580    6.817912    1.253011
     73          1           0       -1.375690    7.615265    1.645819
     74          1           0       -0.713890    2.715898    0.596262
     75          1           0        0.038993   -0.027801   -0.122164
     76          1           0       -5.428640    1.384344   -0.048404
     77          1           0       -5.400023    0.437453    1.458828
     78          1           0       -4.637293    2.056272    1.418133
     79          1           0       -3.866172   -2.744702    1.266391
     80          1           0       -5.229293   -1.641648    0.903107
     81          1           0       -5.270457   -2.316823   -1.461093
     82          1           0       -3.613406   -3.005678   -1.371193
     83          1           0       -4.681028   -5.927348    0.468301
 ---------------------------------------------------------------------

 The electronic state is 1-A.
 Alpha  occ. eigenvalues --  -18.60149 -18.52984 -18.51325 -18.49360 -18.47847
 Alpha  occ. eigenvalues --  -18.45803 -13.85979 -13.83938 -13.79346 -13.79095
 Alpha  occ. eigenvalues --   -9.82064  -9.79229  -9.77913  -9.77045  -9.75374
 Alpha  occ. eigenvalues --   -9.75002  -9.74319  -9.73597  -9.73359  -9.73337
 Alpha  occ. eigenvalues --   -9.73212  -9.73088  -9.72376  -9.71975  -9.71947
 Alpha  occ. eigenvalues --   -9.71729  -9.71716  -9.71542  -9.71445  -9.71324
 Alpha  occ. eigenvalues --   -9.71324  -9.71026  -9.70997  -9.70311  -9.70303
 Alpha  occ. eigenvalues --   -9.70273  -9.70124  -9.69577  -9.69303  -9.69249
 Alpha  occ. eigenvalues --   -9.69182  -9.68979  -9.68777  -0.94287  -0.89086
 Alpha  occ. eigenvalues --   -0.88192  -0.87002  -0.86712  -0.81442  -0.80711
 Alpha  occ. eigenvalues --   -0.80076  -0.79394  -0.78597  -0.68980  -0.68338
 Alpha  occ. eigenvalues --   -0.68312  -0.66900  -0.66652  -0.65029  -0.64438
 Alpha  occ. eigenvalues --   -0.64031  -0.63346  -0.62663  -0.61830  -0.59451
 Alpha  occ. eigenvalues --   -0.58691  -0.58217  -0.57628  -0.54978  -0.54651
 Alpha  occ. eigenvalues --   -0.53630  -0.52922  -0.52171  -0.51426  -0.49415
 Alpha  occ. eigenvalues --   -0.47833  -0.47483  -0.46685  -0.46311  -0.45299
 Alpha  occ. eigenvalues --   -0.44803  -0.43696  -0.42932  -0.42207  -0.41217
 Alpha  occ. eigenvalues --   -0.40586  -0.38864  -0.38284  -0.37597  -0.37124
 Alpha  occ. eigenvalues --   -0.36249  -0.35835  -0.35775  -0.35156  -0.34850
 Alpha  occ. eigenvalues --   -0.34425  -0.34189  -0.34155  -0.33672  -0.33257
 Alpha  occ. eigenvalues --   -0.32988  -0.32794  -0.32742  -0.32644  -0.32177
 Alpha  occ. eigenvalues --   -0.31973  -0.31587  -0.31126  -0.30770  -0.30662
 Alpha  occ. eigenvalues --   -0.30368  -0.30022  -0.29461  -0.29374  -0.29063
 Alpha  occ. eigenvalues --   -0.29023  -0.28808  -0.28541  -0.28403  -0.28049
 Alpha  occ. eigenvalues --   -0.27849  -0.27612  -0.27128  -0.26836  -0.26512
 Alpha  occ. eigenvalues --   -0.26348  -0.26128  -0.25981  -0.25670  -0.25403
 Alpha  occ. eigenvalues --   -0.25300  -0.24957  -0.24916  -0.24646  -0.24409
 Alpha  occ. eigenvalues --   -0.24182  -0.24041  -0.23528  -0.23203  -0.22199
 Alpha  occ. eigenvalues --   -0.21293  -0.19694  -0.19460  -0.17303  -0.15924
 Alpha  occ. eigenvalues --   -0.15025  -0.14132  -0.13405  -0.12634  -0.12056
 Alpha  occ. eigenvalues --   -0.11188  -0.11144  -0.09895  -0.09750  -0.08743
 Alpha  occ. eigenvalues --   -0.07361  -0.06875
 Alpha virt. eigenvalues --   -0.01877   0.01737   0.03888   0.05332   0.08780
 Alpha virt. eigenvalues --    0.09122   0.10766   0.13107   0.14096   0.16442
 Alpha virt. eigenvalues --    0.18179   0.19183   0.19595   0.24338   0.24986

 Mulliken atomic charges:
              1
     1  C   -0.109455
     2  N   -0.258187
     3  C    0.028117
     4  C   -0.030534
     5  C   -0.037548
     6  C    0.044110
     7  C   -0.247369
     8  C   -0.153798
     9  C   -0.162661
    10  C    0.156640
    11  O   -0.227867
    12  O   -0.231112
    13  C   -0.114931
    14  N   -0.273323
    15  C    0.059187
    16  C   -0.011148
    17  C   -0.029276
    18  C    0.161492
    19  C   -0.244210
    20  C   -0.149017
    21  C   -0.234611
    22  O   -0.200920
    23  N   -0.262355
    24  C    0.185527
    25  C   -0.076124
    26  C   -0.064413
    27  C    0.074624
    28  C   -0.235193
    29  C   -0.139547
    30  C   -0.237466
    31  O   -0.194751
    32  C   -0.132905
    33  N   -0.256863
    34  C    0.049678
    35  C   -0.037554
    36  C   -0.030234
    37  C    0.025285
    38  C   -0.247879
    39  C   -0.149953
    40  C   -0.161182
    41  C    0.194387
    42  O   -0.171203
    43  O   -0.188966
    44  H    0.119703
    45  H    0.091733
    46  H    0.083471
    47  H    0.091053
    48  H    0.093042
    49  H    0.086465
    50  H    0.090786
    51  H    0.090215
    52  H    0.206491
    53  H    0.096293
    54  H    0.229839
    55  H    0.094184
    56  H    0.096021
    57  H    0.095628
    58  H    0.086385
    59  H    0.089036
    60  H    0.082199
    61  H    0.084845
    62  H    0.081117
    63  H    0.237701
    64  H    0.094383
    65  H    0.093775
    66  H    0.086925
    67  H    0.084844
    68  H    0.086905
    69  H    0.080973
    70  H    0.082849
    71  H    0.082849
    72  H    0.080777
    73  H    0.080652
    74  H    0.091052
    75  H    0.237582
    76  H    0.084031
    77  H    0.092426
    78  H    0.091779
    79  H    0.093884
    80  H    0.093506
    81  H    0.104585
    82  H    0.106502
    83  H    0.247017
 Sum of Mulliken atomic charges =   0.00000

 Dipole moment (field-independent basis, Debye):
    X=             -4.4596    Y=              1.2950    Z=             -0.6235  Tot=              4.6855
 Quadrupole moment (field-independent basis, Debye-Ang):
   XX=           -246.8493   YY=           -204.6105   ZZ=           -238.4986
   XY=             24.6324   XZ=             -8.7047   YZ=              9.8821

 Normal termination of Gaussian 09 at Fri Nov  1 16:08:42 2019.
