 Gaussian 09, Revision A.01,
 Gaussian 09:  EM64L-G09RevA.01  8-May-2009

 ----------------------------------------------------------------------
 # cam-b3lyp/aug-cc-pvdz opt(tight) Freq=(savenormalmodes,raman) SCRF=P
 CM int(grid=ultrafine) nosymm
 ----------------------------------------------------------------------

 -----
 Title
 -----
 Symbolic Z-matrix:
 Charge =  0 Multiplicity = 1

 SCF Done:  E(RCAM-B3LYP) =  -169.864201704     A.U. after   11 cycles
 Optimization completed.
    -- Stationary point found.
 Normal termination of Gaussian 09 at Mon Oct 28 08:26:17 2019.

 ----------------------------------------------------------------------
 #N Geom=AllCheck Guess=TCheck SCRF=Check GenChk RCAM-B3LYP/Aug-CC-pVDZ
  Freq
 ----------------------------------------------------------------------

 Title
 -----
 Redundant internal coordinates taken from checkpoint file:
 freq.chk
 Charge =  0 Multiplicity = 1

                          Input orientation:
 ---------------------------------------------------------------------
 Center     Atomic      Atomic             Coordinates (Angstroms)
 Number     Number       Type             X           Y           Z
 ---------------------------------------------------------------------
      1          6           0       -0.148406    0.389411   -0.000008
      2          7           0        1.075890   -0.160923    0.000060
      3          8           0       -1.199011   -0.244372   -0.000076
      4          1           0        1.182007   -1.166648    0.000092
      5          1           0        1.902982    0.416959    0.000154
      6          1           0       -0.133692    1.494659   -0.000005
 ---------------------------------------------------------------------

 SCF Done:  E(RCAM-B3LYP) =  -169.864201704     A.U. after    1 cycles

 Alpha  occ. eigenvalues --  -19.20592 -14.43921 -10.37654  -1.13251  -1.00140
 Alpha  occ. eigenvalues --   -0.70900  -0.63283  -0.56221  -0.49948  -0.49027
 Alpha  occ. eigenvalues --   -0.35108  -0.34314
 Alpha virt. eigenvalues --    0.01671   0.03328   0.04398   0.04944   0.07805
 Alpha virt. eigenvalues --    0.08200   0.09546   0.12744   0.14289   0.14951
 Alpha virt. eigenvalues --    0.15949   0.18128   0.20969   0.21113   0.21475

 Mulliken atomic charges:
              1
     1  C    0.817577
     2  N    0.161620
     3  O   -0.554274
     4  H   -0.088860
     5  H   -0.043972
     6  H   -0.292090
 Sum of Mulliken atomic charges =   0.00000

 Dipole moment (field-independent basis, Debye):
    X=              5.1238    Y=              1.2632    Z=              0.0005  Tot=              5.2772
 Quadrupole moment (field-independent basis, Debye-Ang):
   XX=            -18.5724   YY=            -15.2274   ZZ=            -19.2154
   XY=             -1.5257   XZ=              0.0002   YZ=             -0.0001

  Exact polarizability:  44.024   1.277  32.747   0.001   0.000  23.737
 Approx polarizability:  39.746   2.159  29.405   0.001   0.000  21.957

                     1                      2                      3
                     A                      A                      A
 Frequencies --   373.0754               576.3547               654.7062
 Red. masses --     1.2267                 2.4914                 1.2122
 Frc consts  --     0.1006                 0.4876                 0.3061
 IR Inten    --   307.4640                20.4131                22.5878
 Raman Activ --     1.0645                 1.9221                 0.2842

                     4                      5                      6
                     A                      A                      A
 Frequencies --  1066.4636              1077.0012              1304.8616
 Red. masses --     1.5314                 1.6768                 2.6181
 Frc consts  --     1.0262                 1.1459                 2.6264
 IR Inten    --     4.0098                 1.1291               156.5210
 Raman Activ --     1.7433                 9.5348                16.0023

                     7                      8                      9
                     A                      A                      A
 Frequencies --  1418.0958              1615.0228              1737.8771
 Red. masses --     1.2648                 1.2842                 6.3058
 Frc consts  --     1.4986                 1.9735                11.2210
 IR Inten    --    28.3763                84.8392               833.0931
 Raman Activ --    14.0094                 5.8309                22.8215

                    10                     11                     12
                     A                      A                      A
 Frequencies --  3046.2813              3589.1741              3727.9387
 Red. masses --     1.0876                 1.0471                 1.1060
 Frc consts  --     5.9466                 7.9474                 9.0558
 IR Inten    --    74.4423                96.3934                98.4545
 Raman Activ --   233.5233               212.7324                68.3931

 - Thermochemistry -
 -------------------
 Temperature   298.150 Kelvin.  Pressure   1.00000 Atm.
 Atom     1 has atomic number  6 and mass  12.00000

 Molecular mass:    45.02146 amu.
 Principal axes and moments of inertia in atomic units:
                           1         2         3
     Eigenvalues --    24.67464 158.44410 183.11874
           X            0.99981  -0.01947  -0.00006
           Y            0.01947   0.99981   0.00000
           Z            0.00006   0.00000   1.00000
 This molecule is an asymmetric top.
 Rotational symmetry number  1.
 Rotational temperatures (Kelvin)      3.51024     0.54665     0.47299
 Rotational constants (GHZ):          73.14155    11.39040     9.85558
 Zero-point vibrational energy     120744.2 (Joules/Mol)
                                   28.85855 (Kcal/Mol)
 Warning -- explicit consideration of   2 degrees of freedom as
           vibrations may cause significant error
 Vibrational temperatures:    536.77   829.24   941.97  1534.40  1549.56
          (Kelvin)           1877.40  2040.32  2323.65  2500.41  4382.91
                             5164.01  5363.67

 Zero-point correction=                           0.045989 (Hartree/Particle)
 Thermal correction to Energy=                    0.049542
 Thermal correction to Enthalpy=                  0.050486
 Thermal correction to Gibbs Free Energy=         0.021667
 Sum of electronic and zero-point Energies=           -169.818213
 Sum of electronic and thermal Energies=              -169.814659
 Sum of electronic and thermal Enthalpies=            -169.813715
 Sum of electronic and thermal Free Energies=         -169.842535

                     E (Thermal)             CV                S
                      KCal/Mol        Cal/Mol-Kelvin    Cal/Mol-Kelvin
 Total                   31.088             10.427             60.656
 Electronic               0.000              0.000              0.000
 Translational            0.889              2.981             37.339
 Rotational               0.889              2.981             21.198
 Vibrational             29.311              4.465              2.119
 Vibration     1          0.744              1.527              1.067
 Vibration     2          0.933              1.082              0.492

 Optimization completed.
    -- Stationary point found.
 Normal termination of Gaussian 09 at Mon Oct 28 08:27:23 2019.
