 Gaussian 09, Revision A.01,
 Gaussian 09:  EM64L-G09RevA.01  8-May-2009

 ----------------------------------------------------------------------
 # cam-b3lyp/aug-cc-pvdz opt nosymm td(root=1,nstates=20) SCRF=PCM int(
 grid=ultrafine)
 ----------------------------------------------------------------------

 -----
 Title
 -----
 Symbolic Z-matrix:
 Charge =  0 Multiplicity = 1

 SCF Done:  E(RCAM-B3LYP) =  -169.864201704     A.U. after   11 cycles
 SCF Done:  E(RCAM-B3LYP) =  -169.854979507     A.U. after   11 cycles
 SCF Done:  E(RCAM-B3LYP) =  -169.846203471     A.U. after   11 cycles
 SCF Done:  E(RCAM-B3LYP) =  -169.845457695     A.U. after   10 cycles
 SCF Done:  E(RCAM-B3LYP) =  -169.845438701     A.U. after    9 cycles

 Excitation energies and oscillator strengths:

 Excited state symmetry could not be determined.
 Excited State   1:      Singlet-?Sym    4.8012 eV  258.24 nm  f=0.0002  <S**2>=0.000
      12 -> 14         0.69889
 This state for optimization and/or second-order correction.
 Copying the excited state density for this state as the 1-particle RhoCI density.

 Excited state symmetry could not be determined.
 Excited State   2:      Singlet-?Sym    6.2528 eV  198.28 nm  f=0.2744  <S**2>=0.000
      11 -> 14        -0.66936
      11 -> 17         0.13673
      12 -> 13         0.10181

 Excited state symmetry could not be determined.
 Excited State   3:      Singlet-?Sym    6.8703 eV  180.46 nm  f=0.0763  <S**2>=0.000
      12 -> 13         0.56824
      12 -> 15        -0.13849
      12 -> 16         0.31664
      12 -> 18        -0.17701

 Excited state symmetry could not be determined.
 Excited State   4:      Singlet-?Sym    6.8830 eV  180.13 nm  f=0.0049  <S**2>=0.000
      11 -> 13        -0.66260
      11 -> 15        -0.10210
      11 -> 19         0.13366
      11 -> 20         0.12063

 Excited state symmetry could not be determined.
 Excited State   5:      Singlet-?Sym    7.5757 eV  163.66 nm  f=0.0656  <S**2>=0.000
      12 -> 15         0.64184
      12 -> 16         0.14722
      12 -> 19        -0.16006
      12 -> 21        -0.11160

 Excited state symmetry could not be determined.
 Excited State   6:      Singlet-?Sym    7.6162 eV  162.79 nm  f=0.0140  <S**2>=0.000
      11 -> 13         0.10328
      11 -> 15        -0.65753
      11 -> 18        -0.11406
      11 -> 21         0.16070

 Excited state symmetry could not be determined.
 Excited State   7:      Singlet-?Sym    7.7736 eV  159.49 nm  f=0.0455  <S**2>=0.000
      11 -> 16        -0.65375
      11 -> 18         0.17486
      11 -> 23         0.10266

 Excited state symmetry could not be determined.
 Excited State   8:      Singlet-?Sym    7.8584 eV  157.77 nm  f=0.0694  <S**2>=0.000
      12 -> 13        -0.37030
      12 -> 16         0.50674
      12 -> 18        -0.27242

 Excited state symmetry could not be determined.
 Excited State   9:      Singlet-?Sym    8.3575 eV  148.35 nm  f=0.0022  <S**2>=0.000
      12 -> 17         0.69020
      12 -> 25         0.11428

 Excited state symmetry could not be determined.
 Excited State  10:      Singlet-?Sym    8.5287 eV  145.37 nm  f=0.0104  <S**2>=0.000
      11 -> 14        -0.14394
      11 -> 17        -0.68016

 Excited state symmetry could not be determined.
 Excited State  11:      Singlet-?Sym    8.7230 eV  142.13 nm  f=0.0027  <S**2>=0.000
       9 -> 14         0.65100
      11 -> 18         0.21845

 Excited state symmetry could not be determined.
 Excited State  12:      Singlet-?Sym    8.8408 eV  140.24 nm  f=0.0049  <S**2>=0.000
       9 -> 14         0.24524
      11 -> 16        -0.15183
      11 -> 18        -0.60235
      11 -> 24         0.13712

 Excited state symmetry could not be determined.
 Excited State  13:      Singlet-?Sym    8.8668 eV  139.83 nm  f=0.0103  <S**2>=0.000
      12 -> 16         0.31941
      12 -> 18         0.59175
      12 -> 19         0.14336

 Excited state symmetry could not be determined.
 Excited State  14:      Singlet-?Sym    9.1605 eV  135.35 nm  f=0.0032  <S**2>=0.000
      11 -> 13        -0.10578
      11 -> 19        -0.66718

 Excited state symmetry could not be determined.
 Excited State  15:      Singlet-?Sym    9.2120 eV  134.59 nm  f=0.0069  <S**2>=0.000
      10 -> 14         0.14137
      12 -> 15         0.16048
      12 -> 18        -0.11190
      12 -> 19         0.63159

 Excited state symmetry could not be determined.
 Excited State  16:      Singlet-?Sym    9.5432 eV  129.92 nm  f=0.1358  <S**2>=0.000
      10 -> 14        -0.65085
      12 -> 19         0.12799
      12 -> 23         0.13738

 Excited state symmetry could not be determined.
 Excited State  17:      Singlet-?Sym    9.9373 eV  124.77 nm  f=0.0230  <S**2>=0.000
      10 -> 14         0.13916
      12 -> 20         0.52245
      12 -> 23         0.36604
      12 -> 24        -0.14053
      12 -> 27        -0.10549

 Excited state symmetry could not be determined.
 Excited State  18:      Singlet-?Sym   10.0304 eV  123.61 nm  f=0.0147  <S**2>=0.000
      10 -> 13        -0.15977
      10 -> 15        -0.13621
      11 -> 13        -0.12701
      11 -> 20        -0.54046
      11 -> 21        -0.23616
      11 -> 23        -0.23801

 Excited state symmetry could not be determined.
 Excited State  19:      Singlet-?Sym   10.2805 eV  120.60 nm  f=0.0260  <S**2>=0.000
      10 -> 13         0.41334
      10 -> 20        -0.12011
      11 -> 16        -0.10065
      11 -> 21         0.15637
      11 -> 23        -0.44581
      11 -> 24         0.20016

 Excited state symmetry could not be determined.
 Excited State  20:      Singlet-?Sym   10.3194 eV  120.15 nm  f=0.0001  <S**2>=0.000
      11 -> 15         0.16762
      11 -> 20        -0.30878
      11 -> 21         0.53581
      11 -> 23         0.13908
      11 -> 26         0.14220

 Optimization completed.
    -- Stationary point found.

                          Input orientation:
 ---------------------------------------------------------------------
 Center     Atomic      Atomic             Coordinates (Angstroms)
 Number     Number       Type             X           Y           Z
 ---------------------------------------------------------------------
      1          6           0       -0.115594    0.472016    0.000036
      2          7           0        1.107654   -0.176788   -0.000130
      3          8           0       -1.205198   -0.301851   -0.000092
      4          1           0        1.164006   -1.181156    0.000187
      5          1           0        1.955911    0.363561    0.000204
      6          1           0       -0.227008    1.553303    0.000012
 ---------------------------------------------------------------------

 Alpha  occ. eigenvalues --  -19.20613 -14.44989 -10.39472  -1.08648  -0.98739
 Alpha  occ. eigenvalues --   -0.71758  -0.62745  -0.57468  -0.48241  -0.46724
 Alpha  occ. eigenvalues --   -0.34311  -0.33901
 Alpha virt. eigenvalues --    0.01644   0.01843   0.03294   0.04338   0.07854
 Alpha virt. eigenvalues --    0.08103   0.09540   0.12984   0.14016   0.14903
 Alpha virt. eigenvalues --    0.16023   0.17772   0.20381   0.20749   0.20950

 Mulliken atomic charges:
              1
     1  C    0.910154
     2  N    0.123743
     3  O   -0.684731
     4  H   -0.093121
     5  H   -0.046550
     6  H   -0.209495
 Sum of Mulliken atomic charges =   0.00000

 Dipole moment (field-independent basis, Debye):
    X=              5.5201    Y=              1.8383    Z=              0.0014  Tot=              5.8181
 Quadrupole moment (field-independent basis, Debye-Ang):
   XX=            -18.9372   YY=            -14.5915   ZZ=            -19.5790
   XY=             -2.0504   XZ=              0.0015   YZ=             -0.0005

 Normal termination of Gaussian 09 at Mon Oct 28 09:34:16 2019.
