 Gaussian 09, Revision A.01,
 Gaussian 09:  EM64L-G09RevA.01  8-May-2009

 ----------------------------------------------------------------------
 # cam-b3lyp/aug-cc-pvdz opt nosymm td(root=2,nstates=20) SCRF=PCM int(
 grid=ultrafine)
 ----------------------------------------------------------------------

 -----
 Title
 -----
 Symbolic Z-matrix:
 Charge =  0 Multiplicity = 1

 SCF Done:  E(RCAM-B3LYP) =  -169.864201704     A.U. after   11 cycles
 SCF Done:  E(RCAM-B3LYP) =  -169.862483654     A.U. after   10 cycles
 SCF Done:  E(RCAM-B3LYP) =  -169.858669202     A.U. after   11 cycles
 SCF Done:  E(RCAM-B3LYP) =  -169.858401535     A.U. after   10 cycles
 SCF Done:  E(RCAM-B3LYP) =  -169.858265397     A.U. after    9 cycles
 SCF Done:  E(RCAM-B3LYP) =  -169.858164325     A.U. after    9 cycles
 SCF Done:  E(RCAM-B3LYP) =  -169.858230585     A.U. after    9 cycles

 Excitation energies and oscillator strengths:

 Excited state symmetry could not be determined.
 Excited State   1:      Singlet-?Sym    5.6543 eV  219.27 nm  f=0.0009  <S**2>=0.000
      12 -> 16         0.66580
      12 -> 17        -0.21694

 Excited state symmetry could not be determined.
 Excited State   2:      Singlet-?Sym    6.6967 eV  185.14 nm  f=0.0088  <S**2>=0.000
      11 -> 16        -0.10742
      12 -> 13         0.59474
      12 -> 14        -0.15147
      12 -> 15         0.25697
      12 -> 18         0.13447
      12 -> 20        -0.12378
 This state for optimization and/or second-order correction.
 Copying the excited state density for this state as the 1-particle RhoCI density.

 Excited state symmetry could not be determined.
 Excited State   3:      Singlet-?Sym    7.1067 eV  174.46 nm  f=0.0039  <S**2>=0.000
      11 -> 13        -0.66761
      11 -> 19         0.13587
      11 -> 20         0.13098

 Excited state symmetry could not be determined.
 Excited State   4:      Singlet-?Sym    7.2420 eV  171.20 nm  f=0.1830  <S**2>=0.000
      11 -> 16        -0.35396
      11 -> 17         0.16691
      12 -> 14         0.53338
      12 -> 19        -0.18708

 Excited state symmetry could not be determined.
 Excited State   5:      Singlet-?Sym    7.5043 eV  165.22 nm  f=0.2037  <S**2>=0.000
      11 -> 16         0.38010
      11 -> 17        -0.20466
      12 -> 14         0.28675
      12 -> 15         0.40477
      12 -> 18         0.21441

 Excited state symmetry could not be determined.
 Excited State   6:      Singlet-?Sym    7.7592 eV  159.79 nm  f=0.2409  <S**2>=0.000
      11 -> 16        -0.29269
      11 -> 17         0.19508
      12 -> 13        -0.33541
      12 -> 14        -0.23170
      12 -> 15         0.39909
      12 -> 18         0.18316

 Excited state symmetry could not be determined.
 Excited State   7:      Singlet-?Sym    7.7996 eV  158.96 nm  f=0.0052  <S**2>=0.000
      11 -> 14        -0.65826
      11 -> 20        -0.10058
      11 -> 21         0.15512

 Excited state symmetry could not be determined.
 Excited State   8:      Singlet-?Sym    8.0609 eV  153.81 nm  f=0.0537  <S**2>=0.000
      11 -> 15        -0.64296
      11 -> 18        -0.18442
      11 -> 23         0.10765
      12 -> 17        -0.10531

 Excited state symmetry could not be determined.
 Excited State   9:      Singlet-?Sym    8.1059 eV  152.96 nm  f=0.0048  <S**2>=0.000
      11 -> 15        -0.10670
      12 -> 16         0.20988
      12 -> 17         0.65470

 Excited state symmetry could not be determined.
 Excited State  10:      Singlet-?Sym    8.6919 eV  142.64 nm  f=0.0036  <S**2>=0.000
      11 -> 16        -0.31148
      11 -> 17        -0.61469
      12 -> 19        -0.10416

 Excited state symmetry could not be determined.
 Excited State  11:      Singlet-?Sym    8.7569 eV  141.58 nm  f=0.0042  <S**2>=0.000
      12 -> 15         0.30121
      12 -> 18        -0.60997
      12 -> 19         0.11823

 Excited state symmetry could not be determined.
 Excited State  12:      Singlet-?Sym    9.1036 eV  136.19 nm  f=0.0004  <S**2>=0.000
      11 -> 16        -0.13143
      12 -> 14         0.14380
      12 -> 19         0.63500
      12 -> 21        -0.10047
      12 -> 23         0.11450

 Excited state symmetry could not be determined.
 Excited State  13:      Singlet-?Sym    9.1722 eV  135.17 nm  f=0.0067  <S**2>=0.000
      11 -> 15        -0.16458
      11 -> 18         0.64597
      11 -> 24        -0.11697

 Excited state symmetry could not be determined.
 Excited State  14:      Singlet-?Sym    9.4191 eV  131.63 nm  f=0.0062  <S**2>=0.000
      11 -> 13        -0.11275
      11 -> 19        -0.66220
      11 -> 21         0.10128

 Excited state symmetry could not be determined.
 Excited State  15:      Singlet-?Sym    9.7118 eV  127.66 nm  f=0.0114  <S**2>=0.000
      12 -> 13         0.11516
      12 -> 14        -0.13413
      12 -> 20         0.60099
      12 -> 21        -0.11375
      12 -> 23         0.25761

 Excited state symmetry could not be determined.
 Excited State  16:      Singlet-?Sym    9.8778 eV  125.52 nm  f=0.0000  <S**2>=0.000
      10 -> 16         0.65895
      10 -> 17        -0.21477

 Excited state symmetry could not be determined.
 Excited State  17:      Singlet-?Sym   10.2662 eV  120.77 nm  f=0.0017  <S**2>=0.000
      11 -> 13        -0.15238
      11 -> 20        -0.65028
      11 -> 23        -0.12103

 Excited state symmetry could not be determined.
 Excited State  18:      Singlet-?Sym   10.2682 eV  120.75 nm  f=0.0377  <S**2>=0.000
      11 -> 22         0.11187
      12 -> 14         0.10033
      12 -> 21         0.48026
      12 -> 23         0.40129
      12 -> 24         0.18012
      12 -> 27        -0.14088

 Excited state symmetry could not be determined.
 Excited State  19:      Singlet-?Sym   10.2832 eV  120.57 nm  f=0.0077  <S**2>=0.000
      12 -> 22         0.67719
      12 -> 26        -0.16455

 Excited state symmetry could not be determined.
 Excited State  20:      Singlet-?Sym   10.4018 eV  119.19 nm  f=0.0784  <S**2>=0.000
      12 -> 19        -0.12112
      12 -> 20        -0.25938
      12 -> 21        -0.43291
      12 -> 23         0.31845
      12 -> 24         0.30872

 Optimization completed.
    -- Stationary point found.

                          Input orientation:
 ---------------------------------------------------------------------
 Center     Atomic      Atomic             Coordinates (Angstroms)
 Number     Number       Type             X           Y           Z
 ---------------------------------------------------------------------
      1          6           0       -0.097951    0.368142    0.000041
      2          7           0        1.076595   -0.176128    0.000095
      3          8           0       -1.224283   -0.184796   -0.000109
      4          1           0        1.204683   -1.180697    0.000083
      5          1           0        1.897229    0.432988    0.000123
      6          1           0       -0.176503    1.469577   -0.000016
 ---------------------------------------------------------------------

 Alpha  occ. eigenvalues --  -19.19795 -14.44946 -10.37275  -1.11873  -1.01630
 Alpha  occ. eigenvalues --   -0.71325  -0.64107  -0.56983  -0.49146  -0.48542
 Alpha  occ. eigenvalues --   -0.35256  -0.33338
 Alpha virt. eigenvalues --    0.01587   0.03276   0.04394   0.05355   0.07712
 Alpha virt. eigenvalues --    0.08234   0.09519   0.12584   0.14128   0.14990
 Alpha virt. eigenvalues --    0.15974   0.18042   0.20724   0.21210   0.21324

 Mulliken atomic charges:
              1
     1  C    0.803368
     2  N    0.205364
     3  O   -0.607567
     4  H   -0.092286
     5  H    0.010089
     6  H   -0.318968
 Sum of Mulliken atomic charges =   0.00000

 Dipole moment (field-independent basis, Debye):
    X=              5.7888    Y=              1.0186    Z=              0.0004  Tot=              5.8777
 Quadrupole moment (field-independent basis, Debye-Ang):
   XX=            -18.5844   YY=            -15.2601   ZZ=            -19.1919
   XY=             -1.5754   XZ=             -0.0002   YZ=             -0.0001

 Normal termination of Gaussian 09 at Mon Oct 28 09:56:13 2019.
