 Gaussian 09, Revision A.01,
 Gaussian 09:  EM64L-G09RevA.01  8-May-2009

 ----------------------------------------------------------------------
 # cam-b3lyp/aug-cc-pvdz opt(maxcycle=100) nosymm td(root=5,nstates=20)
  SCRF=PCM int(grid=ultrafine)
 ----------------------------------------------------------------------

 -----
 Title
 -----
 Symbolic Z-matrix:
 Charge =  0 Multiplicity = 1

 SCF Done:  E(RCAM-B3LYP) =  -169.864201704     A.U. after   11 cycles
 SCF Done:  E(RCAM-B3LYP) =  -169.860864507     A.U. after   11 cycles
 SCF Done:  E(RCAM-B3LYP) =  -169.857889916     A.U. after   11 cycles
 SCF Done:  E(RCAM-B3LYP) =  -169.859683890     A.U. after   10 cycles
 SCF Done:  E(RCAM-B3LYP) =  -169.859079503     A.U. after    9 cycles
 SCF Done:  E(RCAM-B3LYP) =  -169.859037879     A.U. after    8 cycles

 Excitation energies and oscillator strengths:

 Excited state symmetry could not be determined.
 Excited State   1:      Singlet-?Sym    5.6038 eV  221.25 nm  f=0.0009  <S**2>=0.000
      12 -> 16         0.67406
      12 -> 17        -0.18979

 Excited state symmetry could not be determined.
 Excited State   2:      Singlet-?Sym    6.8235 eV  181.70 nm  f=0.0039  <S**2>=0.000
      11 -> 16         0.18716
      12 -> 13         0.58406
      12 -> 14        -0.10016
      12 -> 15         0.25977
      12 -> 18         0.12521
      12 -> 20        -0.11468

 Excited state symmetry could not be determined.
 Excited State   3:      Singlet-?Sym    7.0210 eV  176.59 nm  f=0.0067  <S**2>=0.000
      11 -> 13         0.66129
      11 -> 14         0.11577
      11 -> 19        -0.13541
      11 -> 20        -0.12403

 Excited state symmetry could not be determined.
 Excited State   4:      Singlet-?Sym    7.1190 eV  174.16 nm  f=0.2766  <S**2>=0.000
      11 -> 16         0.51577
      11 -> 17        -0.22044
      12 -> 14         0.35167
      12 -> 15        -0.10784
      12 -> 19        -0.13415

 Excited state symmetry could not be determined.
 Excited State   5:      Singlet-?Sym    7.3919 eV  167.73 nm  f=0.1842  <S**2>=0.000
      11 -> 16        -0.27158
      11 -> 17         0.13617
      12 -> 14         0.53776
      12 -> 15         0.24311
      12 -> 18         0.12886
      12 -> 19        -0.12047
 This state for optimization and/or second-order correction.
 Copying the excited state density for this state as the 1-particle RhoCI density.

 Excited state symmetry could not be determined.
 Excited State   6:      Singlet-?Sym    7.6163 eV  162.79 nm  f=0.0020  <S**2>=0.000
      11 -> 13        -0.12801
      11 -> 14         0.64604
      11 -> 15         0.11033
      11 -> 20         0.11652
      11 -> 21        -0.14890

 Excited state symmetry could not be determined.
 Excited State   7:      Singlet-?Sym    7.8229 eV  158.49 nm  f=0.1282  <S**2>=0.000
      11 -> 16         0.15052
      11 -> 17        -0.11108
      12 -> 13        -0.35081
      12 -> 14        -0.12966
      12 -> 15         0.50318
      12 -> 18         0.23444

 Excited state symmetry could not be determined.
 Excited State   8:      Singlet-?Sym    7.9447 eV  156.06 nm  f=0.0463  <S**2>=0.000
      11 -> 14        -0.10609
      11 -> 15         0.64935
      11 -> 18         0.19051
      11 -> 23        -0.10453

 Excited state symmetry could not be determined.
 Excited State   9:      Singlet-?Sym    8.2060 eV  151.09 nm  f=0.0079  <S**2>=0.000
      12 -> 16         0.18487
      12 -> 17         0.67155

 Excited state symmetry could not be determined.
 Excited State  10:      Singlet-?Sym    8.5796 eV  144.51 nm  f=0.0066  <S**2>=0.000
      11 -> 16         0.27947
      11 -> 17         0.63685

 Excited state symmetry could not be determined.
 Excited State  11:      Singlet-?Sym    8.8256 eV  140.48 nm  f=0.0070  <S**2>=0.000
      12 -> 15         0.29480
      12 -> 18        -0.59891
      12 -> 19         0.17080

 Excited state symmetry could not be determined.
 Excited State  12:      Singlet-?Sym    9.0034 eV  137.71 nm  f=0.0056  <S**2>=0.000
      11 -> 15         0.16897
      11 -> 18        -0.64220
      11 -> 24         0.14861

 Excited state symmetry could not be determined.
 Excited State  13:      Singlet-?Sym    9.1540 eV  135.44 nm  f=0.0006  <S**2>=0.000
      12 -> 14         0.16266
      12 -> 18         0.14898
      12 -> 19         0.63307
      12 -> 23         0.11295

 Excited state symmetry could not be determined.
 Excited State  14:      Singlet-?Sym    9.2824 eV  133.57 nm  f=0.0057  <S**2>=0.000
      11 -> 13         0.10378
      11 -> 14         0.10291
      11 -> 19         0.66188

 Excited state symmetry could not be determined.
 Excited State  15:      Singlet-?Sym    9.7611 eV  127.02 nm  f=0.0000  <S**2>=0.000
      10 -> 16         0.66686
      10 -> 17        -0.18685

 Excited state symmetry could not be determined.
 Excited State  16:      Singlet-?Sym    9.8254 eV  126.19 nm  f=0.0051  <S**2>=0.000
      12 -> 13         0.10107
      12 -> 14        -0.11977
      12 -> 20         0.56748
      12 -> 23         0.34574
      12 -> 27        -0.10121

 Excited state symmetry could not be determined.
 Excited State  17:      Singlet-?Sym   10.1869 eV  121.71 nm  f=0.0052  <S**2>=0.000
      11 -> 13         0.13936
      11 -> 20         0.58958
      11 -> 21         0.22721
      11 -> 23         0.21838

 Excited state symmetry could not be determined.
 Excited State  18:      Singlet-?Sym   10.1969 eV  121.59 nm  f=0.0416  <S**2>=0.000
      11 -> 22        -0.10766
      12 -> 14         0.11622
      12 -> 20        -0.17038
      12 -> 21         0.52560
      12 -> 23         0.32689
      12 -> 24         0.13617
      12 -> 26         0.13518

 Excited state symmetry could not be determined.
 Excited State  19:      Singlet-?Sym   10.3086 eV  120.27 nm  f=0.0015  <S**2>=0.000
      11 -> 14         0.16461
      11 -> 20        -0.30319
      11 -> 21         0.44368
      11 -> 23         0.35514
      11 -> 26         0.10475

 Excited state symmetry could not be determined.
 Excited State  20:      Singlet-?Sym   10.3706 eV  119.55 nm  f=0.0019  <S**2>=0.000
      11 -> 21        -0.26547
      11 -> 23         0.33486
      11 -> 24         0.21602
      12 -> 22         0.46876
      12 -> 25        -0.10519

 Optimization completed.
    -- Stationary point found.

                          Input orientation:
 ---------------------------------------------------------------------
 Center     Atomic      Atomic             Coordinates (Angstroms)
 Number     Number       Type             X           Y           Z
 ---------------------------------------------------------------------
      1          6           0       -0.103646    0.403461    0.000024
      2          7           0        1.073788   -0.166788    0.000082
      3          8           0       -1.159468   -0.272223   -0.000083
      4          1           0        1.151757   -1.192167    0.000075
      5          1           0        1.914623    0.399454    0.000145
      6          1           0       -0.197284    1.557349   -0.000026
 ---------------------------------------------------------------------

 Alpha  occ. eigenvalues --  -19.19817 -14.44543 -10.37862  -1.12155  -1.00465
 Alpha  occ. eigenvalues --   -0.70480  -0.63634  -0.56275  -0.48949  -0.48590
 Alpha  occ. eigenvalues --   -0.34825  -0.33677
 Alpha virt. eigenvalues --    0.01684   0.03144   0.04386   0.04821   0.07746
 Alpha virt. eigenvalues --    0.08172   0.09485   0.12741   0.13878   0.15038
 Alpha virt. eigenvalues --    0.15809   0.17794   0.20868   0.20928   0.21057

 Mulliken atomic charges:
              1
     1  C    0.683492
     2  N    0.172159
     3  O   -0.599659
     4  H   -0.060049
     5  H   -0.026528
     6  H   -0.169415
 Sum of Mulliken atomic charges =   0.00000

 Dipole moment (field-independent basis, Debye):
    X=              5.4092    Y=              1.3618    Z=              0.0004  Tot=              5.5780
 Quadrupole moment (field-independent basis, Debye-Ang):
   XX=            -18.4724   YY=            -15.0384   ZZ=            -19.2913
   XY=             -1.8473   XZ=              0.0001   YZ=             -0.0001

 Normal termination of Gaussian 09 at Mon Oct 28 13:10:49 2019.
