 Gaussian 09, Revision A.01,
 Gaussian 09:  EM64L-G09RevA.01  8-May-2009

 ----------------------------------------------------------------------
 # cam-b3lyp/aug-cc-pvdz opt(maxcycle=100) nosymm td(root=6,nstates=20)
  SCRF=PCM int(grid=ultrafine)
 ----------------------------------------------------------------------

 -----
 Title
 -----
 Symbolic Z-matrix:
 Charge =  0 Multiplicity = 1

 SCF Done:  E(RCAM-B3LYP) =  -169.864201704     A.U. after   11 cycles
 SCF Done:  E(RCAM-B3LYP) =  -169.859692896     A.U. after   10 cycles
 SCF Done:  E(RCAM-B3LYP) =  -169.859834400     A.U. after    9 cycles
 SCF Done:  E(RCAM-B3LYP) =  -169.859704895     A.U. after    9 cycles
 SCF Done:  E(RCAM-B3LYP) =  -169.859276015     A.U. after    9 cycles
 SCF Done:  E(RCAM-B3LYP) =  -169.859709689     A.U. after    9 cycles

 Excitation energies and oscillator strengths:

 Excited state symmetry could not be determined.
 Excited State   1:      Singlet-?Sym    5.6651 eV  218.86 nm  f=0.0009  <S**2>=0.000
      12 -> 16         0.67475
      12 -> 17        -0.18725

 Excited state symmetry could not be determined.
 Excited State   2:      Singlet-?Sym    6.8899 eV  179.95 nm  f=0.0166  <S**2>=0.000
      11 -> 13         0.65862
      11 -> 14         0.13799
      11 -> 19        -0.13372
      11 -> 20        -0.13072

 Excited state symmetry could not be determined.
 Excited State   3:      Singlet-?Sym    6.9294 eV  178.92 nm  f=0.0486  <S**2>=0.000
      11 -> 16         0.42176
      11 -> 17        -0.16774
      12 -> 13         0.48501
      12 -> 15         0.17057

 Excited state symmetry could not be determined.
 Excited State   4:      Singlet-?Sym    7.0932 eV  174.79 nm  f=0.2791  <S**2>=0.000
      11 -> 16         0.44682
      11 -> 17        -0.18888
      12 -> 13        -0.34404
      12 -> 14         0.21867
      12 -> 15        -0.23426
      12 -> 18        -0.15234

 Excited state symmetry could not be determined.
 Excited State   5:      Singlet-?Sym    7.5304 eV  164.65 nm  f=0.1360  <S**2>=0.000
      11 -> 16        -0.13574
      12 -> 14         0.62187
      12 -> 15         0.17083
      12 -> 19        -0.14916
      12 -> 21        -0.11610

 Excited state symmetry could not be determined.
 Excited State   6:      Singlet-?Sym    7.5607 eV  163.98 nm  f=0.0003  <S**2>=0.000
      11 -> 13        -0.14195
      11 -> 14         0.63160
      11 -> 15         0.17127
      11 -> 21        -0.16293
 This state for optimization and/or second-order correction.
 Copying the excited state density for this state as the 1-particle RhoCI density.

 Excited state symmetry could not be determined.
 Excited State   7:      Singlet-?Sym    7.8830 eV  157.28 nm  f=0.0329  <S**2>=0.000
      11 -> 14        -0.16030
      11 -> 15         0.64329
      11 -> 18         0.17024
      11 -> 23        -0.10612

 Excited state symmetry could not be determined.
 Excited State   8:      Singlet-?Sym    7.9349 eV  156.25 nm  f=0.1065  <S**2>=0.000
      11 -> 16         0.11014
      12 -> 13        -0.33695
      12 -> 15         0.52983
      12 -> 18         0.24628

 Excited state symmetry could not be determined.
 Excited State   9:      Singlet-?Sym    8.3619 eV  148.27 nm  f=0.0059  <S**2>=0.000
      12 -> 16         0.18209
      12 -> 17         0.67291

 Excited state symmetry could not be determined.
 Excited State  10:      Singlet-?Sym    8.5318 eV  145.32 nm  f=0.0086  <S**2>=0.000
      11 -> 16         0.27177
      11 -> 17         0.64358

 Excited state symmetry could not be determined.
 Excited State  11:      Singlet-?Sym    8.9109 eV  139.14 nm  f=0.0045  <S**2>=0.000
      11 -> 15         0.13975
      11 -> 18        -0.64736
      11 -> 24         0.16652

 Excited state symmetry could not be determined.
 Excited State  12:      Singlet-?Sym    8.9625 eV  138.34 nm  f=0.0096  <S**2>=0.000
      12 -> 15         0.29330
      12 -> 18        -0.60295
      12 -> 19         0.16350

 Excited state symmetry could not be determined.
 Excited State  13:      Singlet-?Sym    9.2159 eV  134.53 nm  f=0.0112  <S**2>=0.000
      11 -> 13         0.11312
      11 -> 19         0.66760

 Excited state symmetry could not be determined.
 Excited State  14:      Singlet-?Sym    9.2704 eV  133.74 nm  f=0.0038  <S**2>=0.000
      12 -> 14         0.15004
      12 -> 18         0.14909
      12 -> 19         0.63990
      12 -> 21        -0.10283

 Excited state symmetry could not be determined.
 Excited State  15:      Singlet-?Sym    9.9628 eV  124.45 nm  f=0.0025  <S**2>=0.000
      12 -> 20         0.53076
      12 -> 23         0.39776
      12 -> 24         0.11343

 Excited state symmetry could not be determined.
 Excited State  16:      Singlet-?Sym    9.9805 eV  124.23 nm  f=0.0018  <S**2>=0.000
       9 -> 16         0.64307
       9 -> 17        -0.17562
      11 -> 23         0.15982

 Excited state symmetry could not be determined.
 Excited State  17:      Singlet-?Sym   10.0966 eV  122.80 nm  f=0.0038  <S**2>=0.000
       9 -> 16        -0.12381
      11 -> 13         0.14474
      11 -> 20         0.55788
      11 -> 21         0.32916
      11 -> 23         0.11058

 Excited state symmetry could not be determined.
 Excited State  18:      Singlet-?Sym   10.2420 eV  121.06 nm  f=0.0138  <S**2>=0.000
       9 -> 16        -0.14356
      11 -> 21        -0.19247
      11 -> 23         0.56072
      11 -> 24         0.27856
      11 -> 26         0.10522

 Excited state symmetry could not be determined.
 Excited State  19:      Singlet-?Sym   10.2741 eV  120.68 nm  f=0.0003  <S**2>=0.000
      11 -> 14        -0.18433
      11 -> 20         0.35921
      11 -> 21        -0.49387
      11 -> 23        -0.19571

 Excited state symmetry could not be determined.
 Excited State  20:      Singlet-?Sym   10.3508 eV  119.78 nm  f=0.0415  <S**2>=0.000
      11 -> 22        -0.19228
      12 -> 14         0.13694
      12 -> 20        -0.16433
      12 -> 21         0.53814
      12 -> 23         0.28108
      12 -> 24         0.10125
      12 -> 26        -0.10393

 Optimization completed.
    -- Stationary point found.

                          Input orientation:
 ---------------------------------------------------------------------
 Center     Atomic      Atomic             Coordinates (Angstroms)
 Number     Number       Type             X           Y           Z
 ---------------------------------------------------------------------
      1          6           0       -0.145821    0.424691   -0.000022
      2          7           0        1.062149   -0.165384    0.000011
      3          8           0       -1.148065   -0.284195   -0.000017
      4          1           0        1.165950   -1.212075    0.000058
      5          1           0        1.913352    0.409927    0.000230
      6          1           0       -0.167795    1.556121   -0.000042
 ---------------------------------------------------------------------

 Alpha  occ. eigenvalues --  -19.20262 -14.44008 -10.37840  -1.13307  -0.98872
 Alpha  occ. eigenvalues --   -0.70033  -0.62327  -0.55843  -0.49550  -0.48913
 Alpha  occ. eigenvalues --   -0.34565  -0.34205
 Alpha virt. eigenvalues --    0.01668   0.03179   0.04387   0.04661   0.07823
 Alpha virt. eigenvalues --    0.08123   0.09497   0.12812   0.13851   0.15024
 Alpha virt. eigenvalues --    0.15758   0.17635   0.20750   0.21013   0.21215

 Mulliken atomic charges:
              1
     1  C    0.759001
     2  N    0.052458
     3  O   -0.558570
     4  H   -0.026786
     5  H   -0.022419
     6  H   -0.203683
 Sum of Mulliken atomic charges =   0.00000

 Dipole moment (field-independent basis, Debye):
    X=              4.9420    Y=              1.4515    Z=              0.0005  Tot=              5.1508
 Quadrupole moment (field-independent basis, Debye-Ang):
   XX=            -18.5594   YY=            -14.8113   ZZ=            -19.3361
   XY=             -1.8099   XZ=              0.0009   YZ=              0.0000

 Normal termination of Gaussian 09 at Mon Oct 28 13:29:53 2019.
