 Gaussian 09, Revision A.01,
 Gaussian 09:  EM64L-G09RevA.01  8-May-2009

 ----------------------------------------------------------------------
 # cam-b3lyp/aug-cc-pvdz opt nosymm td(root=7,nstates=20) SCRF=PCM int(
 grid=ultrafine)
 ----------------------------------------------------------------------

 -----
 Title
 -----
 Symbolic Z-matrix:
 Charge =  0 Multiplicity = 1

 SCF Done:  E(RCAM-B3LYP) =  -169.864201704     A.U. after   11 cycles
 SCF Done:  E(RCAM-B3LYP) =  -169.862437733     A.U. after   10 cycles
 SCF Done:  E(RCAM-B3LYP) =  -169.860677428     A.U. after   10 cycles
 SCF Done:  E(RCAM-B3LYP) =  -169.860299025     A.U. after    9 cycles
 SCF Done:  E(RCAM-B3LYP) =  -169.860304179     A.U. after    9 cycles

 Excitation energies and oscillator strengths:

 Excited state symmetry could not be determined.
 Excited State   1:      Singlet-?Sym    5.6236 eV  220.47 nm  f=0.0008  <S**2>=0.000
      12 -> 16         0.67211
      12 -> 17        -0.19702

 Excited state symmetry could not be determined.
 Excited State   2:      Singlet-?Sym    6.7669 eV  183.22 nm  f=0.0075  <S**2>=0.000
      11 -> 16         0.13569
      12 -> 13         0.59122
      12 -> 14        -0.13649
      12 -> 15         0.25961
      12 -> 18         0.13431
      12 -> 20        -0.11770

 Excited state symmetry could not be determined.
 Excited State   3:      Singlet-?Sym    7.0577 eV  175.67 nm  f=0.0060  <S**2>=0.000
      11 -> 13         0.66638
      11 -> 19        -0.13651
      11 -> 20        -0.12933

 Excited state symmetry could not be determined.
 Excited State   4:      Singlet-?Sym    7.2069 eV  172.03 nm  f=0.2424  <S**2>=0.000
      11 -> 16         0.46996
      11 -> 17        -0.20823
      12 -> 14         0.42732
      12 -> 19        -0.16423

 Excited state symmetry could not be determined.
 Excited State   5:      Singlet-?Sym    7.4868 eV  165.60 nm  f=0.2044  <S**2>=0.000
      11 -> 16        -0.32926
      11 -> 17         0.17086
      12 -> 14         0.45750
      12 -> 15         0.31306
      12 -> 18         0.16351

 Excited state symmetry could not be determined.
 Excited State   6:      Singlet-?Sym    7.7357 eV  160.28 nm  f=0.0043  <S**2>=0.000
      11 -> 14         0.65465
      11 -> 21        -0.15859

 Excited state symmetry could not be determined.
 Excited State   7:      Singlet-?Sym    7.7884 eV  159.19 nm  f=0.1618  <S**2>=0.000
      11 -> 16         0.19735
      11 -> 17        -0.13377
      12 -> 13        -0.34914
      12 -> 14        -0.17956
      12 -> 15         0.47084
      12 -> 18         0.22397
 This state for optimization and/or second-order correction.
 Copying the excited state density for this state as the 1-particle RhoCI density.

 Excited state symmetry could not be determined.
 Excited State   8:      Singlet-?Sym    8.0106 eV  154.78 nm  f=0.0461  <S**2>=0.000
      11 -> 15         0.65256
      11 -> 18         0.18197
      11 -> 23        -0.10929

 Excited state symmetry could not be determined.
 Excited State   9:      Singlet-?Sym    8.1724 eV  151.71 nm  f=0.0079  <S**2>=0.000
      12 -> 16         0.19209
      12 -> 17         0.66885

 Excited state symmetry could not be determined.
 Excited State  10:      Singlet-?Sym    8.6508 eV  143.32 nm  f=0.0046  <S**2>=0.000
      11 -> 16         0.29130
      11 -> 17         0.62949

 Excited state symmetry could not be determined.
 Excited State  11:      Singlet-?Sym    8.8081 eV  140.76 nm  f=0.0050  <S**2>=0.000
      12 -> 15         0.30116
      12 -> 18        -0.60588
      12 -> 19         0.13774

 Excited state symmetry could not be determined.
 Excited State  12:      Singlet-?Sym    9.1038 eV  136.19 nm  f=0.0065  <S**2>=0.000
      11 -> 15         0.15803
      11 -> 18        -0.64598
      11 -> 24         0.12886

 Excited state symmetry could not be determined.
 Excited State  13:      Singlet-?Sym    9.1436 eV  135.60 nm  f=0.0000  <S**2>=0.000
      11 -> 16         0.10722
      12 -> 14         0.14949
      12 -> 18         0.11545
      12 -> 19         0.63716
      12 -> 23         0.10972

 Excited state symmetry could not be determined.
 Excited State  14:      Singlet-?Sym    9.3607 eV  132.45 nm  f=0.0069  <S**2>=0.000
      11 -> 13         0.11120
      11 -> 19         0.66375

 Excited state symmetry could not be determined.
 Excited State  15:      Singlet-?Sym    9.7862 eV  126.69 nm  f=0.0095  <S**2>=0.000
      12 -> 13         0.10901
      12 -> 14        -0.12882
      12 -> 20         0.58626
      12 -> 21        -0.11768
      12 -> 23         0.28870

 Excited state symmetry could not be determined.
 Excited State  16:      Singlet-?Sym    9.8343 eV  126.07 nm  f=0.0000  <S**2>=0.000
      10 -> 16         0.66527
      10 -> 17        -0.19460

 Excited state symmetry could not be determined.
 Excited State  17:      Singlet-?Sym   10.2319 eV  121.17 nm  f=0.0031  <S**2>=0.000
      11 -> 13         0.15187
      11 -> 20         0.63966
      11 -> 21         0.12197
      11 -> 23         0.13877

 Excited state symmetry could not be determined.
 Excited State  18:      Singlet-?Sym   10.2876 eV  120.52 nm  f=0.0378  <S**2>=0.000
      11 -> 22        -0.12171
      12 -> 14         0.11135
      12 -> 21         0.53074
      12 -> 23         0.34696
      12 -> 24         0.14234
      12 -> 27        -0.14716

 Excited state symmetry could not be determined.
 Excited State  19:      Singlet-?Sym   10.3444 eV  119.86 nm  f=0.0085  <S**2>=0.000
      12 -> 22         0.67168
      12 -> 26        -0.16310

 Excited state symmetry could not be determined.
 Excited State  20:      Singlet-?Sym   10.4223 eV  118.96 nm  f=0.0812  <S**2>=0.000
      12 -> 19        -0.11756
      12 -> 20        -0.29597
      12 -> 21        -0.36289
      12 -> 23         0.34660
      12 -> 24         0.33331

 Optimization completed.
    -- Stationary point found.

                          Input orientation:
 ---------------------------------------------------------------------
 Center     Atomic      Atomic             Coordinates (Angstroms)
 Number     Number       Type             X           Y           Z
 ---------------------------------------------------------------------
      1          6           0       -0.104590    0.388699    0.000048
      2          7           0        1.075815   -0.173047    0.000088
      3          8           0       -1.204849   -0.210219   -0.000091
      4          1           0        1.193343   -1.190787    0.000066
      5          1           0        1.908353    0.420985    0.000145
      6          1           0       -0.188302    1.493454   -0.000039
 ---------------------------------------------------------------------

 Alpha  occ. eigenvalues --  -19.19852 -14.44801 -10.37445  -1.11963  -1.00907
 Alpha  occ. eigenvalues --   -0.70986  -0.63655  -0.56856  -0.48948  -0.48663
 Alpha  occ. eigenvalues --   -0.35068  -0.33556
 Alpha virt. eigenvalues --    0.01611   0.03246   0.04390   0.05072   0.07730
 Alpha virt. eigenvalues --    0.08215   0.09508   0.12667   0.14033   0.14998
 Alpha virt. eigenvalues --    0.15958   0.17895   0.20812   0.21062   0.21222

 Mulliken atomic charges:
              1
     1  C    0.807199
     2  N    0.158071
     3  O   -0.603560
     4  H   -0.072922
     5  H   -0.000149
     6  H   -0.288639
 Sum of Mulliken atomic charges =   0.00000

 Dipole moment (field-independent basis, Debye):
    X=              5.6158    Y=              1.1507    Z=              0.0004  Tot=              5.7325
 Quadrupole moment (field-independent basis, Debye-Ang):
   XX=            -18.5493   YY=            -15.1159   ZZ=            -19.2403
   XY=             -1.6817   XZ=              0.0000   YZ=             -0.0001

 Normal termination of Gaussian 09 at Mon Oct 28 13:46:00 2019.
