 Gaussian 09, Revision A.01,
 Gaussian 09:  EM64L-G09RevA.01  8-May-2009

 ----------------------------------------------------------------------
 # cam-b3lyp/aug-cc-pvdz opt nosymm td(root=8,nstates=20) SCRF=PCM int(
 grid=ultrafine)
 ----------------------------------------------------------------------

 -----
 Title
 -----
 Symbolic Z-matrix:
 Charge =  0 Multiplicity = 1

 SCF Done:  E(RCAM-B3LYP) =  -169.864201704     A.U. after   11 cycles
 SCF Done:  E(RCAM-B3LYP) =  -169.860910000     A.U. after   11 cycles
 SCF Done:  E(RCAM-B3LYP) =  -169.860597562     A.U. after   10 cycles
 SCF Done:  E(RCAM-B3LYP) =  -169.860396188     A.U. after   10 cycles
 SCF Done:  E(RCAM-B3LYP) =  -169.860399934     A.U. after    9 cycles

 Excitation energies and oscillator strengths:

 Excited state symmetry could not be determined.
 Excited State   1:      Singlet-?Sym    5.5261 eV  224.36 nm  f=0.0005  <S**2>=0.000
      12 -> 15         0.68361
      12 -> 17        -0.15465

 Excited state symmetry could not be determined.
 Excited State   2:      Singlet-?Sym    6.8394 eV  181.28 nm  f=0.1513  <S**2>=0.000
      11 -> 15         0.56448
      11 -> 17        -0.19415
      12 -> 13         0.32992
      12 -> 19        -0.10175

 Excited state symmetry could not be determined.
 Excited State   3:      Singlet-?Sym    6.8937 eV  179.85 nm  f=0.0123  <S**2>=0.000
      11 -> 13         0.66231
      11 -> 14         0.12061
      11 -> 19        -0.13364
      11 -> 20        -0.13019

 Excited state symmetry could not be determined.
 Excited State   4:      Singlet-?Sym    7.0182 eV  176.66 nm  f=0.1949  <S**2>=0.000
      11 -> 15         0.29519
      11 -> 17        -0.11118
      12 -> 13        -0.49460
      12 -> 14         0.15866
      12 -> 16        -0.28753
      12 -> 18        -0.16784

 Excited state symmetry could not be determined.
 Excited State   5:      Singlet-?Sym    7.6079 eV  162.97 nm  f=0.1008  <S**2>=0.000
      11 -> 15        -0.10375
      12 -> 14         0.63346
      12 -> 16         0.17865
      12 -> 19        -0.14709
      12 -> 21        -0.11363

 Excited state symmetry could not be determined.
 Excited State   6:      Singlet-?Sym    7.6281 eV  162.54 nm  f=0.0005  <S**2>=0.000
      11 -> 13        -0.12859
      11 -> 14         0.63156
      11 -> 16         0.19395
      11 -> 21        -0.15199

 Excited state symmetry could not be determined.
 Excited State   7:      Singlet-?Sym    7.9438 eV  156.08 nm  f=0.0902  <S**2>=0.000
      12 -> 13        -0.34470
      12 -> 14        -0.12693
      12 -> 16         0.52249
      12 -> 18         0.24319

 Excited state symmetry could not be determined.
 Excited State   8:      Singlet-?Sym    7.8418 eV  158.11 nm  f=0.0389  <S**2>=0.000
      11 -> 14        -0.18537
      11 -> 16         0.63605
      11 -> 18         0.17179
      11 -> 23        -0.10600
 This state for optimization and/or second-order correction.
 Copying the excited state density for this state as the 1-particle RhoCI density.

 Excited state symmetry could not be determined.
 Excited State   9:      Singlet-?Sym    8.3728 eV  148.08 nm  f=0.0039  <S**2>=0.000
      12 -> 15         0.14868
      12 -> 17         0.68023

 Excited state symmetry could not be determined.
 Excited State  10:      Singlet-?Sym    8.5195 eV  145.53 nm  f=0.0084  <S**2>=0.000
      11 -> 15         0.23719
      11 -> 17         0.65626

 Excited state symmetry could not be determined.
 Excited State  11:      Singlet-?Sym    8.9105 eV  139.14 nm  f=0.0084  <S**2>=0.000
      11 -> 14        -0.10375
      11 -> 16         0.13548
      11 -> 18        -0.65169
      11 -> 24         0.15121

 Excited state symmetry could not be determined.
 Excited State  12:      Singlet-?Sym    8.9764 eV  138.12 nm  f=0.0113  <S**2>=0.000
      12 -> 16         0.29011
      12 -> 18        -0.60878
      12 -> 19         0.14450

 Excited state symmetry could not be determined.
 Excited State  13:      Singlet-?Sym    9.2118 eV  134.59 nm  f=0.0076  <S**2>=0.000
      11 -> 13         0.11453
      11 -> 19         0.67139

 Excited state symmetry could not be determined.
 Excited State  14:      Singlet-?Sym    9.2739 eV  133.69 nm  f=0.0037  <S**2>=0.000
      12 -> 14         0.15095
      12 -> 18         0.12790
      12 -> 19         0.64671

 Excited state symmetry could not be determined.
 Excited State  15:      Singlet-?Sym    9.8141 eV  126.33 nm  f=0.0012  <S**2>=0.000
       9 -> 15         0.67157
       9 -> 17        -0.15038

 Excited state symmetry could not be determined.
 Excited State  16:      Singlet-?Sym    9.9516 eV  124.59 nm  f=0.0017  <S**2>=0.000
      12 -> 20         0.51585
      12 -> 23         0.40745
      12 -> 24         0.13868
      12 -> 26        -0.10423

 Excited state symmetry could not be determined.
 Excited State  17:      Singlet-?Sym   10.0884 eV  122.90 nm  f=0.0084  <S**2>=0.000
      11 -> 13         0.13436
      11 -> 20         0.59752
      11 -> 21         0.20141
      11 -> 23         0.22117

 Excited state symmetry could not be determined.
 Excited State  18:      Singlet-?Sym   10.2473 eV  120.99 nm  f=0.0043  <S**2>=0.000
      11 -> 20        -0.18284
      11 -> 21        -0.10282
      11 -> 23         0.57521
      11 -> 24         0.23669
      11 -> 26         0.13120

 Excited state symmetry could not be determined.
 Excited State  19:      Singlet-?Sym   10.3790 eV  119.46 nm  f=0.0000  <S**2>=0.000
      11 -> 14        -0.18563
      11 -> 20         0.23080
      11 -> 21        -0.58080
      11 -> 24         0.16571

 Excited state symmetry could not be determined.
 Excited State  20:      Singlet-?Sym   10.4332 eV  118.84 nm  f=0.0461  <S**2>=0.000
      11 -> 22        -0.27276
      12 -> 14         0.10922
      12 -> 20        -0.27669
      12 -> 21         0.39548
      12 -> 23         0.33941
      12 -> 24         0.17699

 Optimization completed.
    -- Stationary point found.

                          Input orientation:
 ---------------------------------------------------------------------
 Center     Atomic      Atomic             Coordinates (Angstroms)
 Number     Number       Type             X           Y           Z
 ---------------------------------------------------------------------
      1          6           0       -0.139910    0.436423    0.000018
      2          7           0        1.066485   -0.150396    0.000208
      3          8           0       -1.142685   -0.307149   -0.000216
      4          1           0        1.123047   -1.172361    0.000167
      5          1           0        1.939904    0.394744   -0.000047
      6          1           0       -0.167071    1.527826    0.000088
 ---------------------------------------------------------------------

 Alpha  occ. eigenvalues --  -19.20185 -14.44011 -10.37758  -1.12434  -0.99052
 Alpha  occ. eigenvalues --   -0.70985  -0.62787  -0.56163  -0.49467  -0.48564
 Alpha  occ. eigenvalues --   -0.34476  -0.34184
 Alpha virt. eigenvalues --    0.01669   0.03307   0.04213   0.04352   0.07805
 Alpha virt. eigenvalues --    0.08194   0.09574   0.12858   0.14177   0.15024
 Alpha virt. eigenvalues --    0.15677   0.17852   0.20675   0.21042   0.21431

 Mulliken atomic charges:
              1
     1  C    0.859035
     2  N    0.093962
     3  O   -0.595403
     4  H   -0.062504
     5  H   -0.026912
     6  H   -0.268177
 Sum of Mulliken atomic charges =   0.00000

 Dipole moment (field-independent basis, Debye):
    X=              5.0671    Y=              1.6425    Z=              0.0002  Tot=              5.3267
 Quadrupole moment (field-independent basis, Debye-Ang):
   XX=            -18.5043   YY=            -14.9206   ZZ=            -19.3002
   XY=             -1.7525   XZ=             -0.0016   YZ=             -0.0005

 Normal termination of Gaussian 09 at Mon Oct 28 14:02:12 2019.
