 Gaussian 09, Revision A.01,
 Gaussian 09:  EM64L-G09RevA.01  8-May-2009

 -------------------------------------
 # B3LYP/TZVP Freq=savenormalmodes opt
 -------------------------------------

 -----
 Title
 -----
 Symbolic Z-matrix:
 Charge =  0 Multiplicity = 1

 SCF Done:  E(RB3LYP) =  -233.484649449     A.U. after   13 cycles
 SCF Done:  E(RB3LYP) =  -233.484814796     A.U. after   14 cycles
 SCF Done:  E(RB3LYP) =  -233.484817511     A.U. after    7 cycles
 Optimization completed.
    -- Stationary point found.
 Normal termination of Gaussian 09 at Fri Oct  4 00:20:06 2019.

 ----------------------------------------------------------------
 #N Geom=AllCheck Guess=TCheck SCRF=Check GenChk RB3LYP/TZVP Freq
 ----------------------------------------------------------------

 Title
 -----
 Redundant internal coordinates taken from checkpoint file:
 freq.chk
 Charge =  0 Multiplicity = 1

                         Standard orientation:
 ---------------------------------------------------------------------
 Center     Atomic      Atomic             Coordinates (Angstroms)
 Number     Number       Type             X           Y           Z
 ---------------------------------------------------------------------
      1          6           0        3.066705   -0.167255    0.000005
      2          6           0        1.863121    0.417180   -0.000002
      3          6           0        0.604749   -0.296384   -0.000004
      4          6           0       -0.604749    0.296384   -0.000004
      5          6           0       -1.863121   -0.417180   -0.000002
      6          6           0       -3.066705    0.167255    0.000005
      7          1           0        0.658658   -1.382843   -0.000004
      8          1           0       -0.658658    1.382843   -0.000004
      9          1           0       -1.802697   -1.502723   -0.000007
     10          1           0       -3.172830    1.246432    0.000009
     11          1           0       -3.979654   -0.413604    0.000006
     12          1           0        3.979654    0.413604    0.000006
     13          1           0        3.172830   -1.246432    0.000009
     14          1           0        1.802697    1.502723   -0.000007
 ---------------------------------------------------------------------

 SCF Done:  E(RB3LYP) =  -233.484817511     A.U. after    1 cycles

 The electronic state is 1-A.
 Alpha  occ. eigenvalues --  -10.18407 -10.18402 -10.18359 -10.18285 -10.17348
 Alpha  occ. eigenvalues --  -10.17348  -0.82876  -0.78753  -0.72870  -0.62847
 Alpha  occ. eigenvalues --   -0.56603  -0.56094  -0.49426  -0.46917  -0.43842
 Alpha  occ. eigenvalues --   -0.41330  -0.39039  -0.36897  -0.35305  -0.35100
 Alpha  occ. eigenvalues --   -0.29923  -0.22259
 Alpha virt. eigenvalues --   -0.05914   0.02560   0.04871   0.05676   0.06880
 Alpha virt. eigenvalues --    0.07137   0.08838   0.10071   0.12134   0.13095
 Alpha virt. eigenvalues --    0.14435   0.16496   0.17494   0.19458   0.19740

 Mulliken atomic charges:
              1
     1  C   -0.268269
     2  C   -0.082161
     3  C   -0.111038
     4  C   -0.111038
     5  C   -0.082161
     6  C   -0.268269
     7  H    0.114992
     8  H    0.114993
     9  H    0.116526
    10  H    0.115189
    11  H    0.114760
    12  H    0.114760
    13  H    0.115189
    14  H    0.116526
 Sum of Mulliken atomic charges =   0.00000

 Dipole moment (field-independent basis, Debye):
    X=              0.0000    Y=              0.0000    Z=              0.0000  Tot=              0.0000
 Quadrupole moment (field-independent basis, Debye-Ang):
   XX=            -34.9605   YY=            -33.7818   ZZ=            -42.5307
   XY=              0.0231   XZ=              0.0000   YZ=              0.0000

  Exact polarizability: 166.233 -13.717  61.994   0.000   0.000  40.646
 Approx polarizability: 266.967 -37.352  91.435   0.000   0.000  57.750

                     1                      2                      3
                     A                      A                      A
 Frequencies --   101.1609               150.3092               227.2130
 Red. masses --     3.3494                 2.9608                 2.7904
 Frc consts  --     0.0202                 0.0394                 0.0849
 IR Inten    --     0.5344                 2.0377                 0.0000

                     4                      5                      6
                     A                      A                      A
 Frequencies --   257.8570               354.5624               447.1495
 Red. masses --     1.6310                 2.4910                 4.2843
 Frc consts  --     0.0639                 0.1845                 0.5047
 IR Inten    --     1.6746                 0.0000                 0.0000

                     7                      8                      9
                     A                      A                      A
 Frequencies --   549.4439               618.8669               710.0300
 Red. masses --     2.4873                 1.1712                 1.5995
 Frc consts  --     0.4424                 0.2643                 0.4751
 IR Inten    --     5.9754                 0.0000                14.8170

                    10                     11                     12
                     A                      A                      A
 Frequencies --   906.5750               931.6283               937.6200
 Red. masses --     1.7949                 1.2922                 1.4690
 Frc consts  --     0.8692                 0.6608                 0.7609
 IR Inten    --     0.0000                80.1859                 0.0000

                    13                     14                     15
                     A                      A                      A
 Frequencies --   950.8171               970.9677               982.6039
 Red. masses --     1.4514                 1.2170                 1.6021
 Frc consts  --     0.7731                 0.6760                 0.9114
 IR Inten    --     0.0000                15.5826                 2.9148

                    16                     17                     18
                     A                      A                      A
 Frequencies --  1025.4572              1056.4297              1159.5718
 Red. masses --     1.1300                 1.0969                 2.2373
 Frc consts  --     0.7001                 0.7213                 1.7724
 IR Inten    --     0.0000                70.3509                 7.1252

                    19                     20                     21
                     A                      A                      A
 Frequencies --  1221.3208              1290.6215              1319.3209
 Red. masses --     1.9056                 1.2941                 1.5648
 Frc consts  --     1.6747                 1.2701                 1.6047
 IR Inten    --     0.0000                 1.8515                 0.0000

                    22                     23                     24
                     A                      A                      A
 Frequencies --  1331.7882              1338.0932              1441.1480
 Red. masses --     1.2881                 1.3090                 1.2796
 Frc consts  --     1.3461                 1.3809                 1.5658
 IR Inten    --     3.9401                 0.0000                 0.0000

                    25                     26                     27
                     A                      A                      A
 Frequencies --  1472.7031              1636.1980              1684.8711
 Red. masses --     1.2348                 3.7882                 4.1905
 Frc consts  --     1.5779                 5.9752                 7.0090
 IR Inten    --     3.8315                 0.0000                32.8327

                    28                     29                     30
                     A                      A                      A
 Frequencies --  1688.2421              3127.2118              3128.1552
 Red. masses --     4.5797                 1.0888                 1.0840
 Frc consts  --     7.6906                 6.2733                 6.2497
 IR Inten    --     0.0000                 0.0000                 0.0370

                    31                     32                     33
                     A                      A                      A
 Frequencies --  3137.1133              3141.7290              3142.5613
 Red. masses --     1.0800                 1.0624                 1.0706
 Frc consts  --     6.2625                 6.1782                 6.2291
 IR Inten    --     0.0000                23.9379                 0.0000

                    34                     35                     36
                     A                      A                      A
 Frequencies --  3143.8055              3228.7077              3228.7285
 Red. masses --     1.0878                 1.1153                 1.1153
 Frc consts  --     6.3343                 6.8503                 6.8503
 IR Inten    --    35.7276                 0.0000                23.4480

 - Thermochemistry -
 -------------------
 Temperature   298.150 Kelvin.  Pressure   1.00000 Atm.
 Atom     1 has atomic number  6 and mass  12.00000

 Molecular mass:    80.06260 amu.
 Principal axes and moments of inertia in atomic units:
                           1         2         3
     Eigenvalues --    67.265111347.865811415.13092
           X            1.00000  -0.00283   0.00000
           Y            0.00283   1.00000   0.00000
           Z            0.00000   0.00000   1.00000
 This molecule is an asymmetric top.
 Rotational symmetry number  1.
 Rotational temperatures (Kelvin)      1.28765     0.06426     0.06121
 Rotational constants (GHZ):          26.83027     1.33896     1.27532
 Zero-point vibrational energy     311271.8 (Joules/Mol)
                                   74.39575 (Kcal/Mol)
 Warning -- explicit consideration of   8 degrees of freedom as
           vibrations may cause significant error
 Vibrational temperatures:    145.55   216.26   326.91   371.00   510.14
          (Kelvin)            643.35   790.53   890.41  1021.57  1304.36
                             1340.40  1349.02  1368.01  1397.00  1413.75
                             1475.40  1519.96  1668.36  1757.21  1856.91
                             1898.21  1916.14  1925.22  2073.49  2118.89
                             2354.12  2424.15  2429.00  4499.35  4500.71
                             4513.60  4520.24  4521.44  4523.23  4645.38
                             4645.41

 Zero-point correction=                           0.118557 (Hartree/Particle)
 Thermal correction to Energy=                    0.125262
 Thermal correction to Enthalpy=                  0.126206
 Thermal correction to Gibbs Free Energy=         0.088488
 Sum of electronic and zero-point Energies=           -233.366260
 Sum of electronic and thermal Energies=              -233.359556
 Sum of electronic and thermal Enthalpies=            -233.358611
 Sum of electronic and thermal Free Energies=         -233.396330

                     E (Thermal)             CV                S
                      KCal/Mol        Cal/Mol-Kelvin    Cal/Mol-Kelvin
 Total                   78.603             23.826             79.385
 Electronic               0.000              0.000              0.000
 Translational            0.889              2.981             39.055
 Rotational               0.889              2.981             26.353
 Vibrational             76.826             17.864             13.976
 Vibration     1          0.604              1.948              3.432
 Vibration     2          0.618              1.902              2.668
 Vibration     3          0.651              1.800              1.901
 Vibration     4          0.667              1.749              1.676
 Vibration     5          0.730              1.566              1.146
 Vibration     6          0.806              1.367              0.804
 Vibration     7          0.905              1.141              0.545
 Vibration     8          0.979              0.992              0.418

 Optimization completed.
    -- Stationary point found.
 Normal termination of Gaussian 09 at Fri Oct  4 00:21:20 2019.
