 Gaussian 09, Revision A.01,
 Gaussian 09:  EM64L-G09RevA.01  8-May-2009

 ---------------------------
 # B3LYP/TZVP TD(root=1) opt
 ---------------------------

 -----
 Title
 -----
 Symbolic Z-matrix:
 Charge =  0 Multiplicity = 1

 SCF Done:  E(RB3LYP) =  -233.484804536     A.U. after   13 cycles
 SCF Done:  E(RB3LYP) =  -233.477868847     A.U. after   11 cycles
 SCF Done:  E(RB3LYP) =  -233.475268497     A.U. after   10 cycles
 SCF Done:  E(RB3LYP) =  -233.474952505     A.U. after   12 cycles
 SCF Done:  E(RB3LYP) =  -233.475015516     A.U. after   12 cycles
 SCF Done:  E(RB3LYP) =  -233.475002408     A.U. after   12 cycles

 Excitation energies and oscillator strengths:

 Excited State   1:      Singlet-B      4.2001 eV  295.20 nm  f=1.0954  <S**2>=0.000
      22 -> 23         0.71783
      22 <- 23        -0.15215
 This state for optimization and/or second-order correction.
 Copying the excited state density for this state as the 1-particle RhoCI density.

 Excited State   2:      Singlet-A      5.2798 eV  234.83 nm  f=0.0000  <S**2>=0.000
      21 -> 23         0.53129
      22 -> 24         0.46415

 Excited State   3:      Singlet-B      6.1542 eV  201.46 nm  f=0.0000  <S**2>=0.000
      22 -> 25         0.70500

 Optimization completed.
    -- Stationary point found.

                         Standard orientation:
 ---------------------------------------------------------------------
 Center     Atomic      Atomic             Coordinates (Angstroms)
 Number     Number       Type             X           Y           Z
 ---------------------------------------------------------------------
      1          6           0        1.134329    2.908614    0.000000
      2          6           0        1.134329    1.523737    0.000000
      3          6           0       -0.012248    0.711940    0.000000
      4          6           0        0.012248   -0.711940    0.000000
      5          6           0       -1.134329   -1.523737    0.000000
      6          6           0       -1.134329   -2.908614    0.000000
      7          1           0       -0.985721    1.196716    0.000000
      8          1           0        0.985721   -1.196716    0.000000
      9          1           0       -2.097118   -1.017004    0.000001
     10          1           0       -0.208102   -3.472334   -0.000002
     11          1           0       -2.059727   -3.468791    0.000002
     12          1           0        2.059727    3.468791    0.000002
     13          1           0        0.208102    3.472334   -0.000002
     14          1           0        2.097118    1.017004    0.000001
 ---------------------------------------------------------------------

 The electronic state is 1-A.
 Alpha  occ. eigenvalues --  -10.19138 -10.19093 -10.18854 -10.18854 -10.18088
 Alpha  occ. eigenvalues --  -10.18088  -0.82532  -0.78524  -0.71608  -0.63875
 Alpha  occ. eigenvalues --   -0.56614  -0.56193  -0.49188  -0.46713  -0.43522
 Alpha  occ. eigenvalues --   -0.41688  -0.38366  -0.37250  -0.36244  -0.34834
 Alpha  occ. eigenvalues --   -0.29749  -0.21141
 Alpha virt. eigenvalues --   -0.07619   0.02166   0.04942   0.05340   0.06720
 Alpha virt. eigenvalues --    0.07105   0.08866   0.09839   0.12129   0.12862
 Alpha virt. eigenvalues --    0.14419   0.16557   0.17303   0.19463   0.19940

 Mulliken atomic charges:
              1
     1  C   -0.281238
     2  C   -0.075137
     3  C   -0.117472
     4  C   -0.117472
     5  C   -0.075137
     6  C   -0.281238
     7  H    0.118845
     8  H    0.118845
     9  H    0.117788
    10  H    0.118700
    11  H    0.118514
    12  H    0.118514
    13  H    0.118700
    14  H    0.117788
 Sum of Mulliken atomic charges =   0.00000

 Dipole moment (field-independent basis, Debye):
    X=              0.0000    Y=              0.0000    Z=              0.0000  Tot=              0.0000
 Quadrupole moment (field-independent basis, Debye-Ang):
   XX=            -33.9553   YY=            -34.7711   ZZ=            -42.9241
   XY=             -0.4346   XZ=              0.0000   YZ=              0.0000

 Normal termination of Gaussian 09 at Fri Oct  4 12:19:17 2019.
