 Gaussian 09, Revision A.01,
 Gaussian 09:  EM64L-G09RevA.01  8-May-2009

 -----------------------------
 # B3LYP/TZVP TD(root=1) force
 -----------------------------

 -----
 Title
 -----
 Symbolic Z-matrix:
 Charge =  0 Multiplicity = 1

                         Standard orientation:
 ---------------------------------------------------------------------
 Center     Atomic      Atomic             Coordinates (Angstroms)
 Number     Number       Type             X           Y           Z
 ---------------------------------------------------------------------
      1          6           0       -0.218281    3.063496    0.000005
      2          6           0       -0.647318    1.796173   -0.000002
      3          6           0        0.218281    0.637117   -0.000004
      4          6           0       -0.218281   -0.637117   -0.000004
      5          6           0        0.647318   -1.796173   -0.000002
      6          6           0        0.218281   -3.063496    0.000005
      7          1           0        1.289426    0.826720   -0.000004
      8          1           0       -1.289426   -0.826720   -0.000004
      9          1           0        1.716737   -1.600221   -0.000007
     10          1           0       -0.839096   -3.303992    0.000009
     11          1           0        0.908944   -3.896477    0.000006
     12          1           0       -0.908944    3.896477    0.000006
     13          1           0        0.839096    3.303992    0.000009
     14          1           0       -1.716737    1.600221   -0.000007
 ---------------------------------------------------------------------

 SCF Done:  E(RB3LYP) =  -233.484804536     A.U. after   13 cycles

 Excitation energies and oscillator strengths:

 Excited State   1:      Singlet-B      4.7394 eV  261.60 nm  f=1.0708  <S**2>=0.000
      22 -> 23         0.70988
      22 <- 23        -0.11342
 This state for optimization and/or second-order correction.
 Copying the excited state density for this state as the 1-particle RhoCI density.

 Excited State   2:      Singlet-A      5.7658 eV  215.04 nm  f=0.0000  <S**2>=0.000
      21 -> 23         0.51793
      22 -> 24         0.47845

 Excited State   3:      Singlet-B      6.4197 eV  193.13 nm  f=0.0000  <S**2>=0.000
      22 -> 25         0.70420

 The electronic state is 1-A.
 Alpha  occ. eigenvalues --  -10.18407 -10.18402 -10.18359 -10.18284 -10.17348
 Alpha  occ. eigenvalues --  -10.17348  -0.82876  -0.78753  -0.72869  -0.62847
 Alpha  occ. eigenvalues --   -0.56603  -0.56094  -0.49426  -0.46917  -0.43842
 Alpha  occ. eigenvalues --   -0.41330  -0.39039  -0.36897  -0.35305  -0.35100
 Alpha  occ. eigenvalues --   -0.29923  -0.22259
 Alpha virt. eigenvalues --   -0.05914   0.02561   0.04871   0.05675   0.06880
 Alpha virt. eigenvalues --    0.07137   0.08838   0.10071   0.12134   0.13095
 Alpha virt. eigenvalues --    0.14435   0.16500   0.17494   0.19459   0.19743

 Mulliken atomic charges:
              1
     1  C   -0.268329
     2  C   -0.082168
     3  C   -0.110995
     4  C   -0.110995
     5  C   -0.082168
     6  C   -0.268329
     7  H    0.115002
     8  H    0.115002
     9  H    0.116532
    10  H    0.115212
    11  H    0.114747
    12  H    0.114747
    13  H    0.115212
    14  H    0.116532
 Sum of Mulliken atomic charges =   0.00000

 Dipole moment (field-independent basis, Debye):
    X=              0.0000    Y=              0.0000    Z=              0.0000  Tot=              0.0000
 Quadrupole moment (field-independent basis, Debye-Ang):
   XX=            -33.7947   YY=            -34.9485   ZZ=            -42.5305
   XY=              0.1245   XZ=              0.0000   YZ=              0.0000

 1\1\GINC-CLODOMIRA\Force\RTD-B3LYP-FC\TZVP\C6H8\DIEGOA\04-Oct-2019\0\\
 # B3LYP/TZVP TD(root=1) force\\Title\\0,1\C,3.066705,-0.167255,0.00000
 5\C,1.863121,0.41718,-0.000002\C,0.604749,-0.296384,-0.000004\C,-0.604
 749,0.296384,-0.000004\C,-1.863121,-0.41718,-0.000002\C,-3.066705,0.16
 7255,0.000005\H,0.658658,-1.382843,-0.000004\H,-0.658658,1.382843,-0.0
 00004\H,-1.802697,-1.502723,-0.000007\H,-3.17283,1.246432,0.000009\H,-
 3.979654,-0.413604,0.000006\H,3.979654,0.413604,0.000006\H,3.17283,-1.
 246432,0.000009\H,1.802697,1.502723,-0.000007\\Version=EM64L-G09RevA.0

 Normal termination of Gaussian 09 at Fri Oct  4 00:25:10 2019.
