 Gaussian 09, Revision A.01,
 Gaussian 09:  EM64L-G09RevA.01  8-May-2009

 -----------------------------------------------------------------
 # pbepbe/6-31G** opt(tight) Freq=(savenormalmodes,raman) SCRF=PCM
 -----------------------------------------------------------------

 -----
 Title
 -----
 Symbolic Z-matrix:
 Charge =  0 Multiplicity = 1

 SCF Done:  E(RPBE-PBE) =  -169.713816539     A.U. after   10 cycles
 SCF Done:  E(RPBE-PBE) =  -169.714870982     A.U. after    9 cycles
 SCF Done:  E(RPBE-PBE) =  -169.714908329     A.U. after    9 cycles
 SCF Done:  E(RPBE-PBE) =  -169.714907308     A.U. after   13 cycles
 SCF Done:  E(RPBE-PBE) =  -169.714910147     A.U. after   13 cycles
 SCF Done:  E(RPBE-PBE) =  -169.714911353     A.U. after    8 cycles
 SCF Done:  E(RPBE-PBE) =  -169.714911362     A.U. after    7 cycles
 Optimization completed.
    -- Stationary point found.
 Normal termination of Gaussian 09 at Thu Oct 31 12:20:27 2019.

 ----------------------------------------------------------------------
 #N Geom=AllCheck Guess=TCheck SCRF=Check GenChk RPBEPBE/6-31G(d,p) Fre
 q
 ----------------------------------------------------------------------

 Title
 -----
 Redundant internal coordinates taken from checkpoint file:
 freq.chk
 Charge =  0 Multiplicity = 1

                         Standard orientation:
 ---------------------------------------------------------------------
 Center     Atomic      Atomic             Coordinates (Angstroms)
 Number     Number       Type             X           Y           Z
 ---------------------------------------------------------------------
      1          6           0       -0.151653    0.389263    0.000002
      2          7           0        1.087441   -0.162459   -0.000014
      3          8           0       -1.213471   -0.243059   -0.000035
      4          1           0        1.193578   -1.174635    0.000133
      5          1           0        1.922634    0.415969    0.000226
      6          1           0       -0.110613    1.504779    0.000010
 ---------------------------------------------------------------------

 SCF Done:  E(RPBE-PBE) =  -169.714911362     A.U. after    1 cycles

 The electronic state is 1-A.
 Alpha  occ. eigenvalues --  -18.74245 -14.02918  -9.99110  -0.93388  -0.82054
 Alpha  occ. eigenvalues --   -0.55765  -0.48929  -0.41797  -0.35522  -0.35014
 Alpha  occ. eigenvalues --   -0.22901  -0.20611
 Alpha virt. eigenvalues --   -0.00867   0.06938   0.09588   0.14959   0.23440
 Alpha virt. eigenvalues --    0.30640   0.50190   0.51029   0.60626   0.61615
 Alpha virt. eigenvalues --    0.64643   0.67533   0.78884   0.79491   0.79896

 Mulliken atomic charges:
              1
     1  C    0.335184
     2  N   -0.540132
     3  O   -0.491360
     4  H    0.296590
     5  H    0.304878
     6  H    0.094840
 Sum of Mulliken atomic charges =   0.00000

 Dipole moment (field-independent basis, Debye):
    X=              4.6250    Y=              0.7633    Z=              0.0008  Tot=              4.6876
 Quadrupole moment (field-independent basis, Debye-Ang):
   XX=            -16.8885   YY=            -14.8254   ZZ=            -18.3980
   XY=             -1.1609   XZ=              0.0011   YZ=             -0.0001

  Exact polarizability:  36.207   0.684  26.580   0.001   0.000  11.322
 Approx polarizability:  62.884   4.967  34.420   0.000   0.000  14.873

                     1                      2                      3
                     A                      A                      A
 Frequencies --   214.5124               547.9818               649.6585
 Red. masses --     1.2379                 2.4024                 1.2213
 Frc consts  --     0.0336                 0.4250                 0.3037
 IR Inten    --   290.3259                16.8386                15.1929
 Raman Activ --     0.1513                 2.7191                 1.5181

                     4                      5                      6
                     A                      A                      A
 Frequencies --  1008.8885              1029.0008              1258.2946
 Red. masses --     1.5063                 1.7167                 2.8241
 Frc consts  --     0.9033                 1.0710                 2.6345
 IR Inten    --     2.1928                 1.0328                94.2995
 Raman Activ --     1.9022                 8.0504                 7.0016

                     7                      8                      9
                     A                      A                      A
 Frequencies --  1387.3798              1559.2072              1740.9873
 Red. masses --     1.2206                 1.2706                 6.9229
 Frc consts  --     1.3843                 1.8199                12.3632
 IR Inten    --    17.2308                90.8736               507.5199
 Raman Activ --     8.9351                 2.5366                 8.5638

                    10                     11                     12
                     A                      A                      A
 Frequencies --  2890.3932              3506.8371              3647.7747
 Red. masses --     1.0842                 1.0459                 1.1053
 Frc consts  --     5.3369                 7.5780                 8.6657
 IR Inten    --   137.9343                50.3648                60.9920
 Raman Activ --   130.5709               165.9633                71.5367

 - Thermochemistry -
 -------------------
 Temperature   298.150 Kelvin.  Pressure   1.00000 Atm.
 Atom     1 has atomic number  6 and mass  12.00000

 Molecular mass:    45.02146 amu.
 Principal axes and moments of inertia in atomic units:
                           1         2         3
     Eigenvalues --    24.83504 162.04853 186.88357
           X            0.99983  -0.01853  -0.00002
           Y            0.01853   0.99983  -0.00002
           Z            0.00002   0.00001   1.00000
 This molecule is an asymmetric top.
 Rotational symmetry number  1.
 Rotational temperatures (Kelvin)      3.48757     0.53449     0.46346
 Rotational constants (GHZ):          72.66915    11.13704     9.65704
 Zero-point vibrational energy     116282.5 (Joules/Mol)
                                   27.79218 (Kcal/Mol)
 Warning -- explicit consideration of   2 degrees of freedom as
           vibrations may cause significant error
 Vibrational temperatures:    308.64   788.42   934.71  1451.56  1480.50
          (Kelvin)           1810.40  1996.13  2243.35  2504.89  4158.63
                             5045.55  5248.33

 Zero-point correction=                           0.044290 (Hartree/Particle)
 Thermal correction to Energy=                    0.048081
 Thermal correction to Enthalpy=                  0.049026
 Thermal correction to Gibbs Free Energy=         0.019686
 Sum of electronic and zero-point Energies=           -169.670622
 Sum of electronic and thermal Energies=              -169.666830
 Sum of electronic and thermal Enthalpies=            -169.665886
 Sum of electronic and thermal Free Energies=         -169.695225

                     E (Thermal)             CV                S
                      KCal/Mol        Cal/Mol-Kelvin    Cal/Mol-Kelvin
 Total                   30.172             10.940             61.750
 Electronic               0.000              0.000              0.000
 Translational            0.889              2.981             37.339
 Rotational               0.889              2.981             21.247
 Vibrational             28.394              4.979              3.163
 Vibration     1          0.644              1.819              2.005
 Vibration     2          0.903              1.144              0.548

 Normal termination of Gaussian 09 at Thu Oct 31 12:20:39 2019.
