 Gaussian 09, Revision A.01,
 Gaussian 09:  EM64L-G09RevA.01  8-May-2009

 ---------------------------------------------------------------
 # cam-b3lyp/6-31G** force nosymm td(root=1,nstates=10) SCRF=PCM
 ---------------------------------------------------------------

 -----
 Title
 -----
 Symbolic Z-matrix:
 Charge =  0 Multiplicity = 1

                          Input orientation:
 ---------------------------------------------------------------------
 Center     Atomic      Atomic             Coordinates (Angstroms)
 Number     Number       Type             X           Y           Z
 ---------------------------------------------------------------------
      1          6           0       -0.151653    0.389263    0.000002
      2          7           0        1.087441   -0.162459   -0.000014
      3          8           0       -1.213471   -0.243059   -0.000035
      4          1           0        1.193578   -1.174635    0.000133
      5          1           0        1.922634    0.415969    0.000226
      6          1           0       -0.110613    1.504779    0.000010
 ---------------------------------------------------------------------

 SCF Done:  E(RCAM-B3LYP) =  -169.833114098     A.U. after   11 cycles

 Excitation energies and oscillator strengths:

 Excited state symmetry could not be determined.
 Excited State   1:      Singlet-?Sym    5.7532 eV  215.51 nm  f=0.0013  <S**2>=0.000
      12 -> 13         0.70652
 This state for optimization and/or second-order correction.
 Copying the excited state density for this state as the 1-particle RhoCI density.

 Excited state symmetry could not be determined.
 Excited State   2:      Singlet-?Sym    7.7721 eV  159.53 nm  f=0.2677  <S**2>=0.000
      11 -> 13         0.68171
      12 -> 14         0.15338

 Excited state symmetry could not be determined.
 Excited State   3:      Singlet-?Sym    8.9005 eV  139.30 nm  f=0.0038  <S**2>=0.000
      10 -> 14         0.10374
      11 -> 14         0.69779

 Excited state symmetry could not be determined.
 Excited State   4:      Singlet-?Sym    9.5681 eV  129.58 nm  f=0.0003  <S**2>=0.000
      11 -> 15         0.69043
      11 -> 16         0.10864

 Excited state symmetry could not be determined.
 Excited State   5:      Singlet-?Sym    9.6907 eV  127.94 nm  f=0.2258  <S**2>=0.000
      11 -> 13        -0.13458
      12 -> 14         0.66036
      12 -> 15         0.19162

 Excited state symmetry could not be determined.
 Excited State   6:      Singlet-?Sym    9.8690 eV  125.63 nm  f=0.1975  <S**2>=0.000
      12 -> 14        -0.16502
      12 -> 15         0.66617
      12 -> 16        -0.11712

 Excited state symmetry could not be determined.
 Excited State   7:      Singlet-?Sym   10.1760 eV  121.84 nm  f=0.0017  <S**2>=0.000
       9 -> 13         0.70271

 Excited state symmetry could not be determined.
 Excited State   8:      Singlet-?Sym   11.1423 eV  111.27 nm  f=0.0000  <S**2>=0.000
      11 -> 15        -0.11952
      11 -> 16         0.68276

 Excited state symmetry could not be determined.
 Excited State   9:      Singlet-?Sym   11.2507 eV  110.20 nm  f=0.0949  <S**2>=0.000
      10 -> 13         0.63443
      12 -> 16        -0.21883
      12 -> 17         0.11754

 Excited state symmetry could not be determined.
 Excited State  10:      Singlet-?Sym   11.4201 eV  108.57 nm  f=0.0752  <S**2>=0.000
      10 -> 13         0.23994
      12 -> 16         0.64228
      12 -> 17        -0.11913

 Alpha  occ. eigenvalues --  -19.19329 -14.43373 -10.36966  -1.10698  -0.98213
 Alpha  occ. eigenvalues --   -0.69457  -0.61568  -0.54367  -0.48050  -0.47022
 Alpha  occ. eigenvalues --   -0.33319  -0.32468
 Alpha virt. eigenvalues --    0.07902   0.14339   0.17187   0.22914   0.31449
 Alpha virt. eigenvalues --    0.40533   0.59201   0.60415   0.71061   0.72817
 Alpha virt. eigenvalues --    0.75599   0.78340   0.88952   0.90586   0.91394

 Mulliken atomic charges:
              1
     1  C    0.397485
     2  N   -0.576436
     3  O   -0.533143
     4  H    0.301338
     5  H    0.309917
     6  H    0.100840
 Sum of Mulliken atomic charges =   0.00000

 Dipole moment (field-independent basis, Debye):
    X=              4.7637    Y=              1.0055    Z=              0.0008  Tot=              4.8687
 Quadrupole moment (field-independent basis, Debye-Ang):
   XX=            -17.2946   YY=            -14.6289   ZZ=            -18.4238
   XY=             -1.2187   XZ=              0.0012   YZ=             -0.0001

 Normal termination of Gaussian 09 at Thu Oct 31 12:24:58 2019.
