 Gaussian 09, Revision A.01,
 Gaussian 09:  EM64L-G09RevA.01  8-May-2009

 ------------------------------------------------------------
 # pbepbe/6-31G** force nosymm td(root=7,nstates=10) SCRF=PCM
 ------------------------------------------------------------

 -----
 Title
 -----
 Symbolic Z-matrix:
 Charge =  0 Multiplicity = 1

                          Input orientation:
 ---------------------------------------------------------------------
 Center     Atomic      Atomic             Coordinates (Angstroms)
 Number     Number       Type             X           Y           Z
 ---------------------------------------------------------------------
      1          6           0       -0.151653    0.389263    0.000002
      2          7           0        1.087441   -0.162459   -0.000014
      3          8           0       -1.213471   -0.243059   -0.000035
      4          1           0        1.193578   -1.174635    0.000133
      5          1           0        1.922634    0.415969    0.000226
      6          1           0       -0.110613    1.504779    0.000010
 ---------------------------------------------------------------------

 SCF Done:  E(RPBE-PBE) =  -169.714911362     A.U. after   10 cycles

 Excitation energies and oscillator strengths:

 Excited state symmetry could not be determined.
 Excited State   1:      Singlet-?Sym    5.5797 eV  222.21 nm  f=0.0013  <S**2>=0.000
      12 -> 13         0.70696

 Excited state symmetry could not be determined.
 Excited State   2:      Singlet-?Sym    7.2923 eV  170.02 nm  f=0.0317  <S**2>=0.000
      11 -> 13         0.49684
      12 -> 14         0.50125

 Excited state symmetry could not be determined.
 Excited State   3:      Singlet-?Sym    8.0523 eV  153.97 nm  f=0.3770  <S**2>=0.000
      11 -> 13        -0.44725
      12 -> 14         0.45285
      12 -> 15         0.29158

 Excited state symmetry could not be determined.
 Excited State   4:      Singlet-?Sym    8.3421 eV  148.63 nm  f=0.0026  <S**2>=0.000
      11 -> 14         0.70236

 Excited state symmetry could not be determined.
 Excited State   5:      Singlet-?Sym    8.3711 eV  148.11 nm  f=0.1982  <S**2>=0.000
      11 -> 13         0.19884
      12 -> 14        -0.19709
      12 -> 15         0.64103

 Excited state symmetry could not be determined.
 Excited State   6:      Singlet-?Sym    8.8879 eV  139.50 nm  f=0.0003  <S**2>=0.000
      11 -> 15         0.70322

 Excited state symmetry could not be determined.
 Excited State   7:      Singlet-?Sym    9.8058 eV  126.44 nm  f=0.0199  <S**2>=0.000
      12 -> 16         0.70027
 This state for optimization and/or second-order correction.
 Copying the excited state density for this state as the 1-particle RhoCI density.

 Excited state symmetry could not be determined.
 Excited State   8:      Singlet-?Sym    9.8133 eV  126.34 nm  f=0.0018  <S**2>=0.000
       9 -> 13         0.70180

 Excited state symmetry could not be determined.
 Excited State   9:      Singlet-?Sym   10.3675 eV  119.59 nm  f=0.0001  <S**2>=0.000
      11 -> 16         0.70445

 Excited state symmetry could not be determined.
 Excited State  10:      Singlet-?Sym   10.9600 eV  113.12 nm  f=0.1196  <S**2>=0.000
      10 -> 13         0.67089

 Alpha  occ. eigenvalues --  -18.74245 -14.02918  -9.99110  -0.93388  -0.82054
 Alpha  occ. eigenvalues --   -0.55765  -0.48929  -0.41797  -0.35522  -0.35014
 Alpha  occ. eigenvalues --   -0.22901  -0.20611
 Alpha virt. eigenvalues --   -0.00867   0.06938   0.09588   0.14959   0.23440
 Alpha virt. eigenvalues --    0.30640   0.50190   0.51029   0.60626   0.61615
 Alpha virt. eigenvalues --    0.64643   0.67533   0.78884   0.79491   0.79896

 Mulliken atomic charges:
              1
     1  C    0.335185
     2  N   -0.540132
     3  O   -0.491360
     4  H    0.296590
     5  H    0.304878
     6  H    0.094840
 Sum of Mulliken atomic charges =   0.00000

 Dipole moment (field-independent basis, Debye):
    X=              4.6250    Y=              0.7633    Z=              0.0008  Tot=              4.6876
 Quadrupole moment (field-independent basis, Debye-Ang):
   XX=            -16.8885   YY=            -14.8254   ZZ=            -18.3980
   XY=             -1.1609   XZ=              0.0011   YZ=             -0.0001

 Normal termination of Gaussian 09 at Thu Oct 31 12:27:51 2019.
