 Gaussian 09, Revision A.01,
 Gaussian 09:  EM64L-G09RevA.01  8-May-2009

 ------------------------------------
 # bp86/TZVP Freq=savenormalmodes opt
 ------------------------------------

 -----
 Title
 -----
 Symbolic Z-matrix:
 Charge =  0 Multiplicity = 1

 SCF Done:  E(RB-P86) =  -233.469555053     A.U. after   13 cycles
 SCF Done:  E(RB-P86) =  -233.469861447     A.U. after   14 cycles
 SCF Done:  E(RB-P86) =  -233.469870643     A.U. after    7 cycles
 SCF Done:  E(RB-P86) =  -233.469871810     A.U. after   14 cycles
 Optimization completed.
    -- Stationary point found.
 Normal termination of Gaussian 09 at Fri Oct  4 01:20:59 2019.

 ---------------------------------------------------------------
 #N Geom=AllCheck Guess=TCheck SCRF=Check GenChk RBP86/TZVP Freq
 ---------------------------------------------------------------

 Title
 -----
 Redundant internal coordinates taken from checkpoint file:
 freq.chk
 Charge =  0 Multiplicity = 1

                         Standard orientation:
 ---------------------------------------------------------------------
 Center     Atomic      Atomic             Coordinates (Angstroms)
 Number     Number       Type             X           Y           Z
 ---------------------------------------------------------------------
      1          6           0       -3.083331    0.166837    0.000001
      2          6           0       -1.867408   -0.418746   -0.000001
      3          6           0       -0.611494    0.297504    0.000000
      4          6           0        0.611494   -0.297504    0.000000
      5          6           0        1.867408    0.418746   -0.000001
      6          6           0        3.083331   -0.166837    0.000001
      7          1           0       -0.665669    1.393498    0.000000
      8          1           0        0.665669   -1.393498    0.000000
      9          1           0        1.804486    1.513646   -0.000001
     10          1           0        3.191699   -1.254773    0.000002
     11          1           0        4.001817    0.421633    0.000001
     12          1           0       -4.001818   -0.421634    0.000001
     13          1           0       -3.191699    1.254773    0.000002
     14          1           0       -1.804486   -1.513646   -0.000001
 ---------------------------------------------------------------------

 SCF Done:  E(RB-P86) =  -233.469871810     A.U. after    1 cycles

 The electronic state is 1-A.
 Alpha  occ. eigenvalues --   -9.90926  -9.90924  -9.90892  -9.90843  -9.89924
 Alpha  occ. eigenvalues --   -9.89924  -0.75100  -0.71229  -0.65623  -0.56658
 Alpha  occ. eigenvalues --   -0.50726  -0.50206  -0.44085  -0.41717  -0.38717
 Alpha  occ. eigenvalues --   -0.36437  -0.34142  -0.32330  -0.31317  -0.30986
 Alpha  occ. eigenvalues --   -0.26684  -0.19810
 Alpha virt. eigenvalues --   -0.08842  -0.00885   0.02632   0.03345   0.05378
 Alpha virt. eigenvalues --    0.05827   0.07181   0.08596   0.10497   0.11408
 Alpha virt. eigenvalues --    0.12629   0.14789   0.16248   0.17548   0.17889

 Mulliken atomic charges:
              1
     1  C   -0.293604
     2  C   -0.082619
     3  C   -0.123262
     4  C   -0.123262
     5  C   -0.082618
     6  C   -0.293605
     7  H    0.123636
     8  H    0.123636
     9  H    0.124468
    10  H    0.126078
    11  H    0.125303
    12  H    0.125303
    13  H    0.126078
    14  H    0.124468
 Sum of Mulliken atomic charges =   0.00000

 Dipole moment (field-independent basis, Debye):
    X=              0.0000    Y=              0.0000    Z=              0.0000  Tot=              0.0000
 Quadrupole moment (field-independent basis, Debye-Ang):
   XX=            -34.6540   YY=            -33.6840   ZZ=            -42.5491
   XY=              0.0789   XZ=              0.0000   YZ=              0.0000

  Exact polarizability: 176.629 -11.984  64.328   0.000   0.000  41.912
 Approx polarizability: 416.862 -56.029 111.477   0.000   0.000  64.278

                     1                      2                      3
                     A                      A                      A
 Frequencies --   100.6941               144.2528               230.2390
 Red. masses --     3.4226                 2.9529                 2.8603
 Frc consts  --     0.0204                 0.0362                 0.0893
 IR Inten    --     0.6667                 1.7654                 0.0000

                     4                      5                      6
                     A                      A                      A
 Frequencies --   253.0636               340.3592               435.9694
 Red. masses --     1.6104                 2.4740                 4.2820
 Frc consts  --     0.0608                 0.1689                 0.4795
 IR Inten    --     1.4627                 0.0000                 0.0000

                     7                      8                      9
                     A                      A                      A
 Frequencies --   530.5139               597.6444               685.0789
 Red. masses --     2.4600                 1.1607                 1.5907
 Frc consts  --     0.4079                 0.2443                 0.4399
 IR Inten    --     6.1280                 0.0000                14.1421

                    10                     11                     12
                     A                      A                      A
 Frequencies --   866.2726               880.1856               887.4021
 Red. masses --     1.6338                 1.3219                 1.6228
 Frc consts  --     0.7224                 0.6034                 0.7529
 IR Inten    --     0.0000                81.1938                 0.0000

                    13                     14                     15
                     A                      A                      A
 Frequencies --   921.3806               927.8941               955.9313
 Red. masses --     1.4289                 1.2030                 1.5206
 Frc consts  --     0.7147                 0.6102                 0.8187
 IR Inten    --     0.0000                 7.9388                 3.8522

                    16                     17                     18
                     A                      A                      A
 Frequencies --   985.9974              1019.7548              1135.5635
 Red. masses --     1.1192                 1.0934                 2.3034
 Frc consts  --     0.6410                 0.6699                 1.7500
 IR Inten    --     0.0000                71.5214                 6.1991

                    19                     20                     21
                     A                      A                      A
 Frequencies --  1189.9796              1244.1989              1274.3963
 Red. masses --     1.8336                 1.3113                 1.6490
 Frc consts  --     1.5298                 1.1960                 1.5779
 IR Inten    --     0.0000                 1.7559                 0.0000

                    22                     23                     24
                     A                      A                      A
 Frequencies --  1287.0263              1290.3155              1391.7460
 Red. masses --     1.2927                 1.3035                 1.2851
 Frc consts  --     1.2616                 1.2787                 1.4666
 IR Inten    --     4.7097                 0.0000                 0.0000

                    25                     26                     27
                     A                      A                      A
 Frequencies --  1423.8555              1578.4277              1623.8900
 Red. masses --     1.2456                 3.8195                 4.6219
 Frc consts  --     1.4878                 5.6067                 7.1810
 IR Inten    --     4.0907                 0.0000                 0.0000

                    28                     29                     30
                     A                      A                      A
 Frequencies --  1627.1167              3044.8820              3047.3331
 Red. masses --     4.3272                 1.0882                 1.0850
 Frc consts  --     6.7498                 5.9442                 5.9363
 IR Inten    --    31.0766                 0.0000                 0.1697

                    31                     32                     33
                     A                      A                      A
 Frequencies --  3056.7734              3061.5330              3065.8966
 Red. masses --     1.0857                 1.0843                 1.0635
 Frc consts  --     5.9773                 5.9877                 5.8897
 IR Inten    --     0.0000                58.8277                 8.2813

                    34                     35                     36
                     A                      A                      A
 Frequencies --  3065.9195              3154.6619              3154.6722
 Red. masses --     1.0632                 1.1150                 1.1150
 Frc consts  --     5.8884                 6.5377                 6.5378
 IR Inten    --     0.0028                 0.0457                22.9269

 - Thermochemistry -
 -------------------
 Temperature   298.150 Kelvin.  Pressure   1.00000 Atm.
 Atom     1 has atomic number  6 and mass  12.00000

 Molecular mass:    80.06260 amu.
 Principal axes and moments of inertia in atomic units:
                           1         2         3
     Eigenvalues --    68.070841360.954441429.02528
           X            1.00000  -0.00282   0.00000
           Y            0.00282   1.00000   0.00000
           Z            0.00000   0.00000   1.00000
 This molecule is an asymmetric top.
 Rotational symmetry number  1.
 Rotational temperatures (Kelvin)      1.27241     0.06364     0.06061
 Rotational constants (GHZ):          26.51269     1.32608     1.26292
 Zero-point vibrational energy     301942.4 (Joules/Mol)
                                   72.16596 (Kcal/Mol)
 Warning -- explicit consideration of   8 degrees of freedom as
           vibrations may cause significant error
 Vibrational temperatures:    144.88   207.55   331.26   364.10   489.70
          (Kelvin)            627.26   763.29   859.88   985.67  1246.37
                             1266.39  1276.77  1325.66  1335.03  1375.37
                             1418.63  1467.20  1633.82  1712.11  1790.12
                             1833.57  1851.74  1856.47  2002.41  2048.61
                             2271.00  2336.41  2341.06  4380.90  4384.43
                             4398.01  4404.86  4411.14  4411.17  4538.85
                             4538.86

 Zero-point correction=                           0.115004 (Hartree/Particle)
 Thermal correction to Energy=                    0.121855
 Thermal correction to Enthalpy=                  0.122799
 Thermal correction to Gibbs Free Energy=         0.084830
 Sum of electronic and zero-point Energies=           -233.354868
 Sum of electronic and thermal Energies=              -233.348017
 Sum of electronic and thermal Enthalpies=            -233.347073
 Sum of electronic and thermal Free Energies=         -233.385041

                     E (Thermal)             CV                S
                      KCal/Mol        Cal/Mol-Kelvin    Cal/Mol-Kelvin
 Total                   76.465             24.609             79.911
 Electronic               0.000              0.000              0.000
 Translational            0.889              2.981             39.055
 Rotational               0.889              2.981             26.385
 Vibrational             74.687             18.647             14.472
 Vibration     1          0.604              1.949              3.441
 Vibration     2          0.616              1.909              2.747
 Vibration     3          0.652              1.795              1.877
 Vibration     4          0.664              1.758              1.709
 Vibration     5          0.720              1.595              1.210
 Vibration     6          0.796              1.392              0.839
 Vibration     7          0.885              1.182              0.586
 Vibration     8          0.956              1.037              0.454

 Optimization completed.
    -- Stationary point found.
 Normal termination of Gaussian 09 at Fri Oct  4 01:21:50 2019.
