 Gaussian 09, Revision A.01,
 Gaussian 09:  EM64L-G09RevA.01  8-May-2009

 --------------------------
 # bp86/TZVP TD(root=1) opt
 --------------------------

 -----
 Title
 -----
 Symbolic Z-matrix:
 Charge =  0 Multiplicity = 1

 SCF Done:  E(RB-P86) =  -233.469835173     A.U. after   13 cycles
 SCF Done:  E(RB-P86) =  -233.464937609     A.U. after   12 cycles
 SCF Done:  E(RB-P86) =  -233.463311089     A.U. after   12 cycles
 SCF Done:  E(RB-P86) =  -233.462993671     A.U. after   12 cycles
 SCF Done:  E(RB-P86) =  -233.462960689     A.U. after   12 cycles
 SCF Done:  E(RB-P86) =  -233.462952564     A.U. after    6 cycles

 Excitation energies and oscillator strengths:

 Excited State   1:      Singlet-B      4.0884 eV  303.26 nm  f=1.0313  <S**2>=0.000
      22 -> 23         0.72079
      22 <- 23        -0.18035
 This state for optimization and/or second-order correction.
 Copying the excited state density for this state as the 1-particle RhoCI density.

 Excited State   2:      Singlet-A      4.6828 eV  264.77 nm  f=0.0000  <S**2>=0.000
      21 -> 23         0.52959
      22 -> 24         0.46838

 Excited State   3:      Singlet-B      5.7892 eV  214.17 nm  f=0.0001  <S**2>=0.000
      20 -> 23         0.45721
      22 -> 25        -0.53849

 Optimization completed.
    -- Stationary point found.

                         Standard orientation:
 ---------------------------------------------------------------------
 Center     Atomic      Atomic             Coordinates (Angstroms)
 Number     Number       Type             X           Y           Z
 ---------------------------------------------------------------------
      1          6           0        0.222536    3.132439   -0.000005
      2          6           0        0.638934    1.802262    0.000012
      3          6           0       -0.222536    0.677491   -0.000007
      4          6           0        0.222536   -0.677491   -0.000007
      5          6           0       -0.638934   -1.802262    0.000012
      6          6           0       -0.222536   -3.132439   -0.000005
      7          1           0       -1.304890    0.856174   -0.000013
      8          1           0        1.304890   -0.856174   -0.000013
      9          1           0       -1.717549   -1.601367    0.000036
     10          1           0        0.838939   -3.394427   -0.000034
     11          1           0       -0.943536   -3.950708    0.000013
     12          1           0        0.943536    3.950708    0.000013
     13          1           0       -0.838939    3.394427   -0.000034
     14          1           0        1.717549    1.601367    0.000036
 ---------------------------------------------------------------------

 The electronic state is 1-A.
 Alpha  occ. eigenvalues --   -9.91583  -9.91557  -9.91404  -9.91404  -9.90588
 Alpha  occ. eigenvalues --   -9.90588  -0.74684  -0.70915  -0.64603  -0.57384
 Alpha  occ. eigenvalues --   -0.50690  -0.50325  -0.43817  -0.41482  -0.38474
 Alpha  occ. eigenvalues --   -0.36706  -0.33666  -0.32631  -0.31673  -0.31015
 Alpha  occ. eigenvalues --   -0.26503  -0.19100
 Alpha virt. eigenvalues --   -0.10090  -0.01349   0.02215   0.03467   0.05225
 Alpha virt. eigenvalues --    0.05799   0.07211   0.08390   0.10395   0.11239
 Alpha virt. eigenvalues --    0.12587   0.14851   0.16036   0.17570   0.18035

 Mulliken atomic charges:
              1
     1  C   -0.304954
     2  C   -0.079525
     3  C   -0.128408
     4  C   -0.128408
     5  C   -0.079525
     6  C   -0.304954
     7  H    0.127462
     8  H    0.127462
     9  H    0.126556
    10  H    0.129644
    11  H    0.129225
    12  H    0.129225
    13  H    0.129644
    14  H    0.126556
 Sum of Mulliken atomic charges =   0.00000

 Dipole moment (field-independent basis, Debye):
    X=              0.0000    Y=              0.0000    Z=              0.0000  Tot=              0.0000
 Quadrupole moment (field-independent basis, Debye-Ang):
   XX=            -33.6549   YY=            -34.6007   ZZ=            -42.9061
   XY=             -0.0456   XZ=              0.0000   YZ=              0.0000

 Normal termination of Gaussian 09 at Fri Oct  4 02:11:31 2019.
