 Gaussian 09, Revision A.01,
 Gaussian 09:  EM64L-G09RevA.01  8-May-2009

 ---------------------------------
 # bp86/TZVP TD(root=1) opt nosymm
 ---------------------------------

 -----
 Title
 -----
 Symbolic Z-matrix:
 Charge =  0 Multiplicity = 1

 SCF Done:  E(RB-P86) =  -233.469871810     A.U. after   14 cycles
 SCF Done:  E(RB-P86) =  -233.464980673     A.U. after   13 cycles
 SCF Done:  E(RB-P86) =  -233.463320355     A.U. after   10 cycles
 SCF Done:  E(RB-P86) =  -233.462935908     A.U. after    9 cycles
 SCF Done:  E(RB-P86) =  -233.462958579     A.U. after    9 cycles
 SCF Done:  E(RB-P86) =  -233.462979703     A.U. after    7 cycles

 Excitation energies and oscillator strengths:

 Excited state symmetry could not be determined.
 Excited State   1:      Singlet-?Sym    4.0887 eV  303.24 nm  f=1.0313  <S**2>=0.000
      22 -> 23         0.72078
      22 <- 23        -0.18030
 This state for optimization and/or second-order correction.
 Copying the excited state density for this state as the 1-particle RhoCI density.

 Excited state symmetry could not be determined.
 Excited State   2:      Singlet-?Sym    4.6829 eV  264.76 nm  f=0.0000  <S**2>=0.000
      21 -> 23         0.52970
      22 -> 24         0.46826

 Excited state symmetry could not be determined.
 Excited State   3:      Singlet-?Sym    5.7896 eV  214.15 nm  f=0.0001  <S**2>=0.000
      20 -> 23         0.45737
      22 -> 25        -0.53836

 Optimization completed.
    -- Stationary point found.

                          Input orientation:
 ---------------------------------------------------------------------
 Center     Atomic      Atomic             Coordinates (Angstroms)
 Number     Number       Type             X           Y           Z
 ---------------------------------------------------------------------
      1          6           0       -3.135216    0.179552    0.000003
      2          6           0       -1.869202   -0.403445   -0.000007
      3          6           0       -0.643477    0.307226    0.000005
      4          6           0        0.643477   -0.307227    0.000005
      5          6           0        1.869201    0.403445   -0.000007
      6          6           0        3.135216   -0.179552    0.000002
      7          1           0       -0.682709    1.403546    0.000009
      8          1           0        0.682708   -1.403547    0.000009
      9          1           0        1.807617    1.498861   -0.000019
     10          1           0        3.259238   -1.265809    0.000019
     11          1           0        4.039010    0.430839   -0.000008
     12          1           0       -4.039010   -0.430839   -0.000008
     13          1           0       -3.259238    1.265809    0.000019
     14          1           0       -1.807617   -1.498861   -0.000019
 ---------------------------------------------------------------------

 Alpha  occ. eigenvalues --   -9.91583  -9.91557  -9.91405  -9.91404  -9.90588
 Alpha  occ. eigenvalues --   -9.90588  -0.74684  -0.70915  -0.64604  -0.57384
 Alpha  occ. eigenvalues --   -0.50689  -0.50326  -0.43819  -0.41480  -0.38475
 Alpha  occ. eigenvalues --   -0.36706  -0.33670  -0.32631  -0.31671  -0.31015
 Alpha  occ. eigenvalues --   -0.26503  -0.19102
 Alpha virt. eigenvalues --   -0.10089  -0.01349   0.02216   0.03468   0.05225
 Alpha virt. eigenvalues --    0.05799   0.07211   0.08391   0.10393   0.11239
 Alpha virt. eigenvalues --    0.12587   0.14848   0.16037   0.17569   0.18033

 Mulliken atomic charges:
              1
     1  C   -0.304886
     2  C   -0.079530
     3  C   -0.128442
     4  C   -0.128443
     5  C   -0.079530
     6  C   -0.304887
     7  H    0.127452
     8  H    0.127452
     9  H    0.126550
    10  H    0.129619
    11  H    0.129239
    12  H    0.129238
    13  H    0.129619
    14  H    0.126550
 Sum of Mulliken atomic charges =   0.00000

 Dipole moment (field-independent basis, Debye):
    X=              0.0000    Y=              0.0000    Z=              0.0000  Tot=              0.0000
 Quadrupole moment (field-independent basis, Debye-Ang):
   XX=            -34.5946   YY=            -33.6596   ZZ=            -42.9061
   XY=              0.0748   XZ=              0.0000   YZ=              0.0000

 Normal termination of Gaussian 09 at Tue Oct  8 14:10:23 2019.
