 Gaussian 09, Revision A.01,
 Gaussian 09:  EM64L-G09RevA.01  8-May-2009

 ----------------------------
 # bp86/TZVP TD(root=1) force
 ----------------------------

 -----
 Title
 -----
 Symbolic Z-matrix:
 Charge =  0 Multiplicity = 1

                         Standard orientation:
 ---------------------------------------------------------------------
 Center     Atomic      Atomic             Coordinates (Angstroms)
 Number     Number       Type             X           Y           Z
 ---------------------------------------------------------------------
      1          6           0       -1.187540    2.850353    0.000000
      2          6           0       -1.187540    1.500769   -0.000001
      3          6           0        0.002713    0.680019    0.000000
      4          6           0       -0.002713   -0.680019    0.000000
      5          6           0        1.187540   -1.500769   -0.000001
      6          6           0        1.187540   -2.850353    0.000000
      7          1           0        0.966655    1.204380    0.000000
      8          1           0       -0.966655   -1.204380    0.000000
      9          1           0        2.146701   -0.969003   -0.000001
     10          1           0        0.254373   -3.420043    0.000002
     11          1           0        2.116259   -3.422537    0.000000
     12          1           0       -2.116259    3.422537    0.000000
     13          1           0       -0.254373    3.420043    0.000002
     14          1           0       -2.146701    0.969003   -0.000001
 ---------------------------------------------------------------------

 SCF Done:  E(RB-P86) =  -233.469835177     A.U. after   13 cycles

 Excitation energies and oscillator strengths:

 Excited State   1:      Singlet-B      4.4638 eV  277.76 nm  f=0.9972  <S**2>=0.000
      22 -> 23         0.70883
      22 <- 23        -0.14076
 This state for optimization and/or second-order correction.
 Copying the excited state density for this state as the 1-particle RhoCI density.

 Excited State   2:      Singlet-A      5.0365 eV  246.17 nm  f=0.0000  <S**2>=0.000
      21 -> 23         0.52293
      22 -> 24         0.47571

 Excited State   3:      Singlet-B      6.1143 eV  202.78 nm  f=0.0000  <S**2>=0.000
      20 -> 23         0.70283

 The electronic state is 1-A.
 Alpha  occ. eigenvalues --   -9.90925  -9.90923  -9.90890  -9.90842  -9.89923
 Alpha  occ. eigenvalues --   -9.89923  -0.75099  -0.71228  -0.65622  -0.56658
 Alpha  occ. eigenvalues --   -0.50725  -0.50205  -0.44084  -0.41716  -0.38716
 Alpha  occ. eigenvalues --   -0.36437  -0.34141  -0.32330  -0.31316  -0.30985
 Alpha  occ. eigenvalues --   -0.26683  -0.19809
 Alpha virt. eigenvalues --   -0.08841  -0.00884   0.02635   0.03345   0.05379
 Alpha virt. eigenvalues --    0.05827   0.07182   0.08597   0.10497   0.11408
 Alpha virt. eigenvalues --    0.12629   0.14802   0.16248   0.17556   0.17902

 Mulliken atomic charges:
              1
     1  C   -0.293695
     2  C   -0.082611
     3  C   -0.123185
     4  C   -0.123185
     5  C   -0.082611
     6  C   -0.293695
     7  H    0.123638
     8  H    0.123638
     9  H    0.124469
    10  H    0.126079
    11  H    0.125306
    12  H    0.125306
    13  H    0.126079
    14  H    0.124469
 Sum of Mulliken atomic charges =   0.00000

 Dipole moment (field-independent basis, Debye):
    X=              0.0000    Y=              0.0000    Z=              0.0000  Tot=              0.0000
 Quadrupole moment (field-independent basis, Debye-Ang):
   XX=            -33.8055   YY=            -34.5338   ZZ=            -42.5472
   XY=              0.3306   XZ=              0.0000   YZ=              0.0000

 Normal termination of Gaussian 09 at Fri Oct  4 01:36:01 2019.
