 Gaussian 09, Revision A.01,
 Gaussian 09:  EM64L-G09RevA.01  8-May-2009

 -----------------------------------
 # bp86/TZVP TD(root=1) force nosymm
 -----------------------------------

 -----
 Title
 -----
 Symbolic Z-matrix:
 Charge =  0 Multiplicity = 1

                          Input orientation:
 ---------------------------------------------------------------------
 Center     Atomic      Atomic             Coordinates (Angstroms)
 Number     Number       Type             X           Y           Z
 ---------------------------------------------------------------------
      1          6           0       -3.083331    0.166837    0.000001
      2          6           0       -1.867408   -0.418746   -0.000001
      3          6           0       -0.611494    0.297504    0.000000
      4          6           0        0.611494   -0.297504    0.000000
      5          6           0        1.867408    0.418746   -0.000001
      6          6           0        3.083331   -0.166837    0.000001
      7          1           0       -0.665669    1.393498    0.000000
      8          1           0        0.665669   -1.393498    0.000000
      9          1           0        1.804486    1.513646   -0.000001
     10          1           0        3.191699   -1.254773    0.000002
     11          1           0        4.001817    0.421633    0.000001
     12          1           0       -4.001818   -0.421634    0.000001
     13          1           0       -3.191699    1.254773    0.000002
     14          1           0       -1.804486   -1.513646   -0.000001
 ---------------------------------------------------------------------

 SCF Done:  E(RB-P86) =  -233.469871810     A.U. after   14 cycles

 Excitation energies and oscillator strengths:

 Excited state symmetry could not be determined.
 Excited State   1:      Singlet-?Sym    4.4637 eV  277.76 nm  f=0.9972  <S**2>=0.000
      22 -> 23         0.70883
      22 <- 23        -0.14076
 This state for optimization and/or second-order correction.
 Copying the excited state density for this state as the 1-particle RhoCI density.

 Excited state symmetry could not be determined.
 Excited State   2:      Singlet-?Sym    5.0364 eV  246.18 nm  f=0.0000  <S**2>=0.000
      21 -> 23         0.52292
      22 -> 24         0.47573

 Excited state symmetry could not be determined.
 Excited State   3:      Singlet-?Sym    6.1141 eV  202.78 nm  f=0.0000  <S**2>=0.000
      20 -> 23         0.70285

 Alpha  occ. eigenvalues --   -9.90926  -9.90924  -9.90892  -9.90843  -9.89924
 Alpha  occ. eigenvalues --   -9.89924  -0.75100  -0.71229  -0.65623  -0.56658
 Alpha  occ. eigenvalues --   -0.50726  -0.50206  -0.44085  -0.41717  -0.38717
 Alpha  occ. eigenvalues --   -0.36437  -0.34142  -0.32330  -0.31317  -0.30986
 Alpha  occ. eigenvalues --   -0.26684  -0.19810
 Alpha virt. eigenvalues --   -0.08842  -0.00885   0.02632   0.03345   0.05378
 Alpha virt. eigenvalues --    0.05827   0.07181   0.08596   0.10497   0.11408
 Alpha virt. eigenvalues --    0.12629   0.14789   0.16248   0.17548   0.17889

 Mulliken atomic charges:
              1
     1  C   -0.293604
     2  C   -0.082618
     3  C   -0.123262
     4  C   -0.123262
     5  C   -0.082618
     6  C   -0.293605
     7  H    0.123636
     8  H    0.123636
     9  H    0.124468
    10  H    0.126078
    11  H    0.125303
    12  H    0.125303
    13  H    0.126078
    14  H    0.124468
 Sum of Mulliken atomic charges =   0.00000

 Dipole moment (field-independent basis, Debye):
    X=              0.0000    Y=              0.0000    Z=              0.0000  Tot=              0.0000
 Quadrupole moment (field-independent basis, Debye-Ang):
   XX=            -34.6540   YY=            -33.6840   ZZ=            -42.5491
   XY=              0.0789   XZ=              0.0000   YZ=              0.0000

 Normal termination of Gaussian 09 at Tue Oct  8 13:41:43 2019.
