 Gaussian 09, Revision A.01,
 Gaussian 09:  EM64L-G09RevA.01  8-May-2009

 -------------------------------------------------
 # pbepbe/6-31G** opt Freq=(savenormalmodes,raman)
 -------------------------------------------------

 -----
 Title
 -----
 Symbolic Z-matrix:
 Charge =  0 Multiplicity = 1

 SCF Done:  E(RPBE-PBE) =  -169.704443530     A.U. after   13 cycles
 SCF Done:  E(RPBE-PBE) =  -169.705119109     A.U. after   11 cycles
 SCF Done:  E(RPBE-PBE) =  -169.705122894     A.U. after    9 cycles
 SCF Done:  E(RPBE-PBE) =  -169.705122008     A.U. after   14 cycles
 SCF Done:  E(RPBE-PBE) =  -169.705123446     A.U. after   14 cycles
 Optimization completed.
    -- Stationary point found.
 Normal termination of Gaussian 09 at Wed Oct 30 15:34:11 2019.

 ----------------------------------------------------------------------
 #N Geom=AllCheck Guess=TCheck SCRF=Check GenChk RPBEPBE/6-31G(d,p) Fre
 q
 ----------------------------------------------------------------------

 Title
 -----
 Redundant internal coordinates taken from checkpoint file:
 freq.chk
 Charge =  0 Multiplicity = 1

                         Standard orientation:
 ---------------------------------------------------------------------
 Center     Atomic      Atomic             Coordinates (Angstroms)
 Number     Number       Type             X           Y           Z
 ---------------------------------------------------------------------
      1          6           0       -0.160394    0.390526    0.000000
      2          7           0        1.090797   -0.161160   -0.000052
      3          8           0       -1.208310   -0.245544   -0.000007
      4          1           0        1.182918   -1.173762    0.000146
      5          1           0        1.927106    0.413835    0.000266
      6          1           0       -0.116755    1.509243    0.000014
 ---------------------------------------------------------------------

 SCF Done:  E(RPBE-PBE) =  -169.705123446     A.U. after    1 cycles

 The electronic state is 1-A.
 Alpha  occ. eigenvalues --  -18.73913 -14.03415  -9.99024  -0.93381  -0.82356
 Alpha  occ. eigenvalues --   -0.56061  -0.49700  -0.41858  -0.34961  -0.34842
 Alpha  occ. eigenvalues --   -0.22895  -0.20126
 Alpha virt. eigenvalues --   -0.00612   0.04837   0.08345   0.13586   0.23881
 Alpha virt. eigenvalues --    0.29750   0.50392   0.51041   0.60573   0.62313
 Alpha virt. eigenvalues --    0.63464   0.66863   0.78282   0.78354   0.79294

 Mulliken atomic charges:
              1
     1  C    0.348307
     2  N   -0.548270
     3  O   -0.421324
     4  H    0.279329
     5  H    0.271376
     6  H    0.070582
 Sum of Mulliken atomic charges =   0.00000

 Dipole moment (field-independent basis, Debye):
    X=              3.6879    Y=              0.5973    Z=              0.0008  Tot=              3.7360
 Quadrupole moment (field-independent basis, Debye-Ang):
   XX=            -17.0300   YY=            -15.1481   ZZ=            -18.4225
   XY=             -1.0320   XZ=              0.0015   YZ=             -0.0001

  Exact polarizability:  30.177   0.626  22.946   0.001   0.000  10.095
 Approx polarizability:  64.003   6.298  36.121  -0.001   0.000  14.918

                     1                      2                      3
                     A                      A                      A
 Frequencies --   123.6702               540.8858               644.4708
 Red. masses --     1.2299                 2.3713                 1.2137
 Frc consts  --     0.0111                 0.4087                 0.2970
 IR Inten    --   232.7692                10.0058                15.9404
 Raman Activ --     1.1319                 1.3082                 2.0330

                     4                      5                      6
                     A                      A                      A
 Frequencies --   997.7380              1016.9503              1242.8742
 Red. masses --     1.5271                 1.7507                 2.8035
 Frc consts  --     0.8957                 1.0667                 2.5516
 IR Inten    --     1.0225                 1.3898                74.1324
 Raman Activ --     3.5210                 6.6526                 4.8188

                     7                      8                      9
                     A                      A                      A
 Frequencies --  1381.6199              1564.5130              1788.8437
 Red. masses --     1.2018                 1.2686                 7.5257
 Frc consts  --     1.3516                 1.8294                14.1887
 IR Inten    --     4.1017                62.0046               306.0601
 Raman Activ --     8.9805                 6.6819                 7.4294

                    10                     11                     12
                     A                      A                      A
 Frequencies --  2855.8854              3508.8588              3656.7328
 Red. masses --     1.0852                 1.0446                 1.1050
 Frc consts  --     5.2148                 7.5776                 8.7060
 IR Inten    --   119.7821                19.0364                28.8666
 Raman Activ --   123.9422               143.4551                70.3363

 - Thermochemistry -
 -------------------
 Temperature   298.150 Kelvin.  Pressure   1.00000 Atm.
 Atom     1 has atomic number  6 and mass  12.00000

 Molecular mass:    45.02146 amu.
 Principal axes and moments of inertia in atomic units:
                           1         2         3
     Eigenvalues --    24.95995 161.79848 186.75842
           X            0.99983  -0.01854   0.00000
           Y            0.01854   0.99983  -0.00001
           Z            0.00000   0.00001   1.00000
 This molecule is an asymmetric top.
 Rotational symmetry number  1.
 Rotational temperatures (Kelvin)      3.47011     0.53532     0.46377
 Rotational constants (GHZ):          72.30549    11.15425     9.66351
 Zero-point vibrational energy     115577.5 (Joules/Mol)
                                   27.62368 (Kcal/Mol)
 Warning -- explicit consideration of   2 degrees of freedom as
           vibrations may cause significant error
 Vibrational temperatures:    177.93   778.21   927.25  1435.52  1463.16
          (Kelvin)           1788.22  1987.84  2250.98  2573.74  4108.98
                             5048.46  5261.22

 Zero-point correction=                           0.044021 (Hartree/Particle)
 Thermal correction to Energy=                    0.047976
 Thermal correction to Enthalpy=                  0.048920
 Thermal correction to Gibbs Free Energy=         0.019071
 Sum of electronic and zero-point Energies=           -169.661102
 Sum of electronic and thermal Energies=              -169.657148
 Sum of electronic and thermal Enthalpies=            -169.656204
 Sum of electronic and thermal Free Energies=         -169.686052

                     E (Thermal)             CV                S
                      KCal/Mol        Cal/Mol-Kelvin    Cal/Mol-Kelvin
 Total                   30.105             11.106             62.822
 Electronic               0.000              0.000              0.000
 Translational            0.889              2.981             37.339
 Rotational               0.889              2.981             21.250
 Vibrational             28.328              5.144              4.233
 Vibration     1          0.610              1.929              3.042
 Vibration     2          0.896              1.160              0.563

 Optimization completed.
    -- Stationary point found.
 Normal termination of Gaussian 09 at Wed Oct 30 15:34:21 2019.
