 Gaussian 09, Revision A.01,
 Gaussian 09:  EM64L-G09RevA.01  8-May-2009

 ------------------------------------------------------
 # cam-b3lyp/6-31G** force nosymm td(root=1,nstates=10)
 ------------------------------------------------------

 -----
 Title
 -----
 Symbolic Z-matrix:
 Charge =  0 Multiplicity = 1

                          Input orientation:
 ---------------------------------------------------------------------
 Center     Atomic      Atomic             Coordinates (Angstroms)
 Number     Number       Type             X           Y           Z
 ---------------------------------------------------------------------
      1          6           0       -0.160394    0.390526    0.000000
      2          7           0        1.090797   -0.161160   -0.000052
      3          8           0       -1.208310   -0.245544   -0.000007
      4          1           0        1.182918   -1.173762    0.000146
      5          1           0        1.927106    0.413835    0.000266
      6          1           0       -0.116755    1.509243    0.000014
 ---------------------------------------------------------------------

 SCF Done:  E(RCAM-B3LYP) =  -169.822492185     A.U. after   14 cycles

 Excitation energies and oscillator strengths:

 Excited state symmetry could not be determined.
 Excited State   1:      Singlet-?Sym    5.6334 eV  220.09 nm  f=0.0010  <S**2>=0.000
      12 -> 13         0.70633
 This state for optimization and/or second-order correction.
 Copying the excited state density for this state as the 1-particle RhoCI density.

 Excited state symmetry could not be determined.
 Excited State   2:      Singlet-?Sym    7.9127 eV  156.69 nm  f=0.0978  <S**2>=0.000
      11 -> 13         0.61688
      12 -> 14         0.32681

 Excited state symmetry could not be determined.
 Excited State   3:      Singlet-?Sym    8.3335 eV  148.78 nm  f=0.0027  <S**2>=0.000
      10 -> 14         0.10836
      11 -> 14         0.69697

 Excited state symmetry could not be determined.
 Excited State   4:      Singlet-?Sym    9.1919 eV  134.88 nm  f=0.0003  <S**2>=0.000
      11 -> 15         0.69144
      11 -> 16        -0.10294

 Excited state symmetry could not be determined.
 Excited State   5:      Singlet-?Sym    9.2631 eV  133.85 nm  f=0.2535  <S**2>=0.000
      11 -> 13        -0.29357
      12 -> 14         0.59248
      12 -> 15        -0.23135

 Excited state symmetry could not be determined.
 Excited State   6:      Singlet-?Sym    9.5677 eV  129.59 nm  f=0.1381  <S**2>=0.000
      10 -> 13        -0.11374
      11 -> 13        -0.12163
      12 -> 14         0.17927
      12 -> 15         0.65336

 Excited state symmetry could not be determined.
 Excited State   7:      Singlet-?Sym   10.1310 eV  122.38 nm  f=0.0028  <S**2>=0.000
       9 -> 13         0.70423

 Excited state symmetry could not be determined.
 Excited State   8:      Singlet-?Sym   10.7644 eV  115.18 nm  f=0.0000  <S**2>=0.000
      11 -> 15         0.11521
      11 -> 16         0.68449

 Excited state symmetry could not be determined.
 Excited State   9:      Singlet-?Sym   10.8719 eV  114.04 nm  f=0.0058  <S**2>=0.000
      10 -> 13        -0.17613
      12 -> 16         0.66430
      12 -> 17        -0.10100

 Excited state symmetry could not be determined.
 Excited State  10:      Singlet-?Sym   11.4920 eV  107.89 nm  f=0.1131  <S**2>=0.000
      10 -> 13         0.64700
      12 -> 16         0.19850

 Alpha  occ. eigenvalues --  -19.18994 -14.43857 -10.36851  -1.10652  -0.98492
 Alpha  occ. eigenvalues --   -0.69730  -0.62258  -0.54379  -0.47574  -0.46824
 Alpha  occ. eigenvalues --   -0.33309  -0.31856
 Alpha virt. eigenvalues --    0.08216   0.12193   0.15863   0.21374   0.31899
 Alpha virt. eigenvalues --    0.39691   0.59352   0.60365   0.70690   0.73597
 Alpha virt. eigenvalues --    0.74767   0.77663   0.88321   0.89912   0.90712

 Mulliken atomic charges:
              1
     1  C    0.407363
     2  N   -0.583442
     3  O   -0.458562
     4  H    0.285434
     5  H    0.276634
     6  H    0.072572
 Sum of Mulliken atomic charges =   0.00000

 Dipole moment (field-independent basis, Debye):
    X=              3.8259    Y=              0.7993    Z=              0.0009  Tot=              3.9085
 Quadrupole moment (field-independent basis, Debye-Ang):
   XX=            -17.3749   YY=            -14.9661   ZZ=            -18.4499
   XY=             -1.0784   XZ=              0.0015   YZ=             -0.0002

 Normal termination of Gaussian 09 at Wed Oct 30 15:42:12 2019.
