 Gaussian 09, Revision A.01,
 Gaussian 09:  EM64L-G09RevA.01  8-May-2009

 --------------------------------------------------
 # pbepbe/6-31G** force nosymm td(root=6,nstates=8)
 --------------------------------------------------

 -----
 Title
 -----
 Symbolic Z-matrix:
 Charge =  0 Multiplicity = 1

                          Input orientation:
 ---------------------------------------------------------------------
 Center     Atomic      Atomic             Coordinates (Angstroms)
 Number     Number       Type             X           Y           Z
 ---------------------------------------------------------------------
      1          6           0       -0.160394    0.390526    0.000000
      2          7           0        1.090797   -0.161160   -0.000052
      3          8           0       -1.208310   -0.245544   -0.000007
      4          1           0        1.182918   -1.173762    0.000146
      5          1           0        1.927106    0.413835    0.000266
      6          1           0       -0.116755    1.509243    0.000014
 ---------------------------------------------------------------------

 SCF Done:  E(RPBE-PBE) =  -169.705123446     A.U. after   14 cycles

 Excitation energies and oscillator strengths:

 Excited state symmetry could not be determined.
 Excited State   1:      Singlet-?Sym    5.5368 eV  223.93 nm  f=0.0010  <S**2>=0.000
      12 -> 13         0.70683

 Excited state symmetry could not be determined.
 Excited State   2:      Singlet-?Sym    6.8312 eV  181.50 nm  f=0.0035  <S**2>=0.000
      11 -> 13         0.30889
      12 -> 14         0.63483

 Excited state symmetry could not be determined.
 Excited State   3:      Singlet-?Sym    7.7767 eV  159.43 nm  f=0.0019  <S**2>=0.000
      11 -> 14         0.70383

 Excited state symmetry could not be determined.
 Excited State   4:      Singlet-?Sym    7.9351 eV  156.25 nm  f=0.1018  <S**2>=0.000
      11 -> 13         0.18257
      12 -> 15         0.67625

 Excited state symmetry could not be determined.
 Excited State   5:      Singlet-?Sym    8.2913 eV  149.53 nm  f=0.3214  <S**2>=0.000
      10 -> 13         0.10574
      11 -> 13         0.58866
      12 -> 14        -0.29388
      12 -> 15        -0.17695
      12 -> 18        -0.11801

 Excited state symmetry could not be determined.
 Excited State   6:      Singlet-?Sym    8.5604 eV  144.83 nm  f=0.0002  <S**2>=0.000
      11 -> 15         0.70492
 This state for optimization and/or second-order correction.
 Copying the excited state density for this state as the 1-particle RhoCI density.

 Excited state symmetry could not be determined.
 Excited State   7:      Singlet-?Sym    9.4181 eV  131.65 nm  f=0.0220  <S**2>=0.000
      10 -> 13        -0.10274
      12 -> 16         0.68994

 Excited state symmetry could not be determined.
 Excited State   8:      Singlet-?Sym    9.8201 eV  126.26 nm  f=0.0027  <S**2>=0.000
       9 -> 13         0.69828

 Alpha  occ. eigenvalues --  -18.73913 -14.03415  -9.99024  -0.93381  -0.82356
 Alpha  occ. eigenvalues --   -0.56061  -0.49700  -0.41858  -0.34961  -0.34842
 Alpha  occ. eigenvalues --   -0.22895  -0.20126
 Alpha virt. eigenvalues --   -0.00612   0.04837   0.08345   0.13586   0.23881
 Alpha virt. eigenvalues --    0.29750   0.50392   0.51041   0.60573   0.62313
 Alpha virt. eigenvalues --    0.63464   0.66863   0.78282   0.78354   0.79294

 Mulliken atomic charges:
              1
     1  C    0.348307
     2  N   -0.548271
     3  O   -0.421324
     4  H    0.279329
     5  H    0.271376
     6  H    0.070582
 Sum of Mulliken atomic charges =   0.00000

 Dipole moment (field-independent basis, Debye):
    X=              3.6879    Y=              0.5973    Z=              0.0008  Tot=              3.7360
 Quadrupole moment (field-independent basis, Debye-Ang):
   XX=            -17.0300   YY=            -15.1481   ZZ=            -18.4225
   XY=             -1.0320   XZ=              0.0015   YZ=             -0.0001

 Normal termination of Gaussian 09 at Wed Oct 30 15:44:24 2019.
