 Gaussian 09, Revision A.01,
 Gaussian 09:  EM64L-G09RevA.01  8-May-2009

 ----------------------------------------------------------------------
 # pbepbe/6-31G** opt(maxcycles=500) Freq=(savenormalmodes,raman) SCRF=
 PCM nosymm
 ----------------------------------------------------------------------

 -----
 Title
 -----
 Symbolic Z-matrix:
 Charge =  0 Multiplicity = 1

 SCF Done:  E(RPBE-PBE) =  -934.905414954     A.U. after   14 cycles
 SCF Done:  E(RPBE-PBE) =  -934.905606625     A.U. after   10 cycles
 SCF Done:  E(RPBE-PBE) =  -934.905627214     A.U. after    9 cycles
 SCF Done:  E(RPBE-PBE) =  -934.905629737     A.U. after    8 cycles
 SCF Done:  E(RPBE-PBE) =  -934.905628493     A.U. after    9 cycles
 SCF Done:  E(RPBE-PBE) =  -934.905629903     A.U. after    9 cycles
 SCF Done:  E(RPBE-PBE) =  -934.905629972     A.U. after    7 cycles
 Optimization completed.
    -- Stationary point found.
 Normal termination of Gaussian 09 at Fri Nov  1 10:22:04 2019.

 ----------------------------------------------------------------------
 #N Geom=AllCheck Guess=TCheck SCRF=Check GenChk RPBEPBE/6-31G(d,p) Fre
 q
 ----------------------------------------------------------------------

 Title
 -----
 Redundant internal coordinates taken from checkpoint file:
 freq.chk
 Charge =  0 Multiplicity = 1

                          Input orientation:
 ---------------------------------------------------------------------
 Center     Atomic      Atomic             Coordinates (Angstroms)
 Number     Number       Type             X           Y           Z
 ---------------------------------------------------------------------
      1          8           0        5.225377    0.624520   -0.000530
      2         16           0       -4.161568    0.247084    0.000776
      3          8           0       -2.841869   -1.997013    0.000534
      4          6           0        1.166939   -0.429177   -0.000036
      5          6           0        1.549143    0.937423    0.000032
      6          6           0        2.200595   -1.402062   -0.000261
      7          6           0        2.889395    1.312330   -0.000121
      8          6           0        3.545264   -1.041719   -0.000419
      9          6           0        3.899159    0.323198   -0.000356
     10          6           0       -0.213329   -0.876292    0.000110
     11          6           0       -1.347293   -0.114931    0.000291
     12          6           0       -2.654859   -0.775341    0.000398
     13          1           0        0.785435    1.720240    0.000210
     14          1           0        1.929650   -2.462830   -0.000314
     15          1           0        3.165231    2.372113   -0.000062
     16          1           0        4.335555   -1.796651   -0.000596
     17          1           0       -0.363049   -1.964454    0.000059
     18          1           0       -1.305576    0.976066    0.000349
     19          1           0        5.333318    1.595939   -0.000496
     20          6           0       -3.646559    2.004418    0.000019
     21          1           0       -4.581666    2.583649    0.000380
     22          1           0       -3.075927    2.256543   -0.904810
     23          1           0       -3.074927    2.257026    0.904082
 ---------------------------------------------------------------------

 SCF Done:  E(RPBE-PBE) =  -934.905629972     A.U. after    1 cycles

 Alpha  occ. eigenvalues --  -88.07529 -18.81930 -18.76292 -10.00087  -9.97755
 Alpha  occ. eigenvalues --   -9.92869  -9.92739  -9.92068  -9.91953  -9.91811
 Alpha  occ. eigenvalues --   -9.91517  -9.91260  -9.91063  -7.68518  -5.70901
 Alpha  occ. eigenvalues --   -5.70394  -5.69834  -0.98336  -0.94460  -0.78678
 Alpha  occ. eigenvalues --   -0.73305  -0.71591  -0.68632  -0.66899  -0.60952
 Alpha  occ. eigenvalues --   -0.57907  -0.56798  -0.52588  -0.49847  -0.46895
 Alpha  occ. eigenvalues --   -0.45245  -0.42443  -0.40926  -0.39972  -0.38554
 Alpha  occ. eigenvalues --   -0.38478  -0.37915  -0.37158  -0.35899  -0.35486
 Alpha  occ. eigenvalues --   -0.34709  -0.34121  -0.32113  -0.31804  -0.29775
 Alpha  occ. eigenvalues --   -0.29155  -0.25472  -0.23686  -0.21403  -0.21394
 Alpha  occ. eigenvalues --   -0.19427
 Alpha virt. eigenvalues --   -0.09897  -0.04325  -0.01672   0.00722   0.04068
 Alpha virt. eigenvalues --    0.04241   0.05040   0.06565   0.07758   0.10625
 Alpha virt. eigenvalues --    0.10862   0.11941   0.12742   0.12858   0.14150

 Mulliken atomic charges:
              1
     1  O   -0.521216
     2  S    0.075525
     3  O   -0.471706
     4  C    0.106904
     5  C   -0.139288
     6  C   -0.152014
     7  C   -0.149922
     8  C   -0.128437
     9  C    0.308764
    10  C   -0.108141
    11  C   -0.142641
    12  C    0.194792
    13  H    0.127286
    14  H    0.127418
    15  H    0.133532
    16  H    0.127521
    17  H    0.128017
    18  H    0.125022
    19  H    0.350326
    20  C   -0.543029
    21  H    0.185378
    22  H    0.182957
    23  H    0.182952
 Sum of Mulliken atomic charges =   0.00000

 Dipole moment (field-independent basis, Debye):
    X=              6.3086    Y=              6.6887    Z=             -0.0017  Tot=              9.1944
 Quadrupole moment (field-independent basis, Debye-Ang):
   XX=            -85.1798   YY=            -72.0265   ZZ=            -85.9596
   XY=             -6.9074   XZ=              0.0043   YZ=              0.0016

  Exact polarizability: 404.846  -0.174 196.007  -0.045   0.002  67.868
 Approx polarizability: 611.143  12.870 312.678  -0.072   0.003  93.146

                     1                      2                      3
                     A                      A                      A
 Frequencies --    21.9883                49.4639                67.0543
 Red. masses --     3.7574                 5.9863                 5.3484
 Frc consts  --     0.0011                 0.0086                 0.0142
 IR Inten    --     0.2025                 1.3852                 1.1105
 Raman Activ --     5.3233                18.4464                 8.6105

                     4                      5                      6
                     A                      A                      A
 Frequencies --    91.1685               117.8675               176.0848
 Red. masses --     6.6251                 2.2520                 3.9030
 Frc consts  --     0.0324                 0.0184                 0.0713
 IR Inten    --     0.5145                 0.4157                 0.1144
 Raman Activ --     9.2386                 4.0181                 7.1221

                     7                      8                      9
                     A                      A                      A
 Frequencies --   182.4940               204.4558               217.1625
 Red. masses --     1.4158                 2.5066                 8.9744
 Frc consts  --     0.0278                 0.0617                 0.2494
 IR Inten    --     0.8327                 0.8675                 6.9207
 Raman Activ --     1.9955                12.4565                20.7502

                    10                     11                     12
                     A                      A                      A
 Frequencies --   289.6263               361.7639               394.3402
 Red. masses --     5.6881                 3.4365                 4.4301
 Frc consts  --     0.2811                 0.2650                 0.4059
 IR Inten    --    14.1120                 0.0066                10.4474
 Raman Activ --     6.4591                 0.0602                18.3353

                    13                     14                     15
                     A                      A                      A
 Frequencies --   395.2134               403.4929               412.0940
 Red. masses --     1.2886                11.3475                 2.3248
 Frc consts  --     0.1186                 1.0885                 0.2326
 IR Inten    --   121.0738                 2.1656                36.8030
 Raman Activ --     1.4620                12.2209                 0.3856

                    16                     17                     18
                     A                      A                      A
 Frequencies --   467.3495               501.4545               520.1723
 Red. masses --     5.1164                 2.3778                 6.0831
 Frc consts  --     0.6584                 0.3523                 0.9698
 IR Inten    --    46.0097                17.1316                96.0718
 Raman Activ --     3.2721                 0.0912                25.0124

                    19                     20                     21
                     A                      A                      A
 Frequencies --   621.2447               632.1148               697.8128
 Red. masses --     5.9705                 6.8959                 6.0331
 Frc consts  --     1.3576                 1.6234                 1.7309
 IR Inten    --     2.1216                 3.9644                 9.4884
 Raman Activ --     2.5721                23.2534                17.8855

                    22                     23                     24
                     A                      A                      A
 Frequencies --   702.5345               732.8454               785.5050
 Red. masses --     4.9394                 6.7339                 1.3150
 Frc consts  --     1.4364                 2.1308                 0.4781
 IR Inten    --     0.5485               122.8545                16.0880
 Raman Activ --     0.1755                 6.8651                 0.6469

                    25                     26                     27
                     A                      A                      A
 Frequencies --   800.6118               822.0544               832.5265
 Red. masses --     1.6265                 6.2407                 1.7943
 Frc consts  --     0.6143                 2.4848                 0.7327
 IR Inten    --    73.1877               128.3416                 0.1851
 Raman Activ --     4.0273                36.7029                14.5205

                    28                     29                     30
                     A                      A                      A
 Frequencies --   880.6225               915.2430               927.1501
 Red. masses --     4.5617                 1.2908                 1.2864
 Frc consts  --     2.0843                 0.6371                 0.6515
 IR Inten    --    79.7796                 0.0648                 0.5401
 Raman Activ --    69.8275                 0.5089                 0.6122

                    31                     32                     33
                     A                      A                      A
 Frequencies --   943.5956               944.1844               983.8589
 Red. masses --     1.3688                 1.1912                 1.2001
 Frc consts  --     0.7180                 0.6257                 0.6844
 IR Inten    --   131.1877                 7.6003                30.2174
 Raman Activ --   207.7550                11.4478                 3.0965

                    34                     35                     36
                     A                      A                      A
 Frequencies --   992.9057              1046.8932              1097.7228
 Red. masses --     2.5740                 3.2732                 1.3538
 Frc consts  --     1.4951                 2.1136                 0.9612
 IR Inten    --     0.1832               745.9910                39.4226
 Raman Activ --    10.8228               283.8962                11.8321

                    37                     38                     39
                     A                      A                      A
 Frequencies --  1155.8109              1170.0279              1207.2615
 Red. masses --     1.1983                 1.2137                 1.4254
 Frc consts  --     0.9432                 0.9790                 1.2241
 IR Inten    --   413.5371                86.0428                37.0916
 Raman Activ --  1147.8118                33.5660               141.8334

                    40                     41                     42
                     A                      A                      A
 Frequencies --  1283.7528              1294.1234              1308.1204
 Red. masses --     1.9140                 2.2575                 2.1352
 Frc consts  --     1.8584                 2.2275                 2.1527
 IR Inten    --   142.6657               136.7320                35.6145
 Raman Activ --   107.4446                77.0035               803.7187

                    43                     44                     45
                     A                      A                      A
 Frequencies --  1313.3681              1316.5284              1381.8646
 Red. masses --     1.4642                 1.1952                 3.7477
 Frc consts  --     1.4881                 1.2205                 4.2164
 IR Inten    --    61.7769                25.9439               226.4275
 Raman Activ --   350.6551               202.5944                70.9152

                    46                     47                     48
                     A                      A                      A
 Frequencies --  1425.7612              1432.7166              1443.1795
 Red. masses --     1.0485                 1.0673                 3.7049
 Frc consts  --     1.2558                 1.2908                 4.5464
 IR Inten    --    13.7389                60.6412               118.6609
 Raman Activ --    30.1191                38.3575               151.1502

                    49                     50                     51
                     A                      A                      A
 Frequencies --  1510.6825              1575.6822              1579.8298
 Red. masses --     2.9056                 5.5903                 5.9035
 Frc consts  --     3.9069                 8.1775                 8.6812
 IR Inten    --   220.5974               920.4411               666.3402
 Raman Activ --     1.2399              7631.8515              5069.3841

                    52                     53                     54
                     A                      A                      A
 Frequencies --  1626.5323              1662.9165              3005.1725
 Red. masses --     6.3689                 8.9816                 1.0298
 Frc consts  --     9.9275                14.6333                 5.4795
 IR Inten    --    24.7387               318.6403                14.5645
 Raman Activ --   343.1014                54.6524               123.1830

                    55                     56                     57
                     A                      A                      A
 Frequencies --  3087.2000              3104.2137              3110.4268
 Red. masses --     1.0877                 1.1042                 1.1087
 Frc consts  --     6.1080                 6.2691                 6.3197
 IR Inten    --     8.3712                 2.8931                 5.1059
 Raman Activ --     4.5038                72.6978               202.3015

                    58                     59                     60
                     A                      A                      A
 Frequencies --  3119.0578              3123.8634              3138.8005
 Red. masses --     1.0885                 1.0889                 1.0938
 Frc consts  --     6.2389                 6.2606                 6.3493
 IR Inten    --    22.3092                 7.4196                 8.7068
 Raman Activ --    21.5918                36.2698                31.2648

                    61                     62                     63
                     A                      A                      A
 Frequencies --  3150.0956              3155.9584              3684.6564
 Red. masses --     1.0941                 1.0890                 1.0661
 Frc consts  --     6.3964                 6.3907                 8.5276
 IR Inten    --    14.5604                12.6722               188.5796
 Raman Activ --    25.0066                55.8953               349.9241

 - Thermochemistry -
 -------------------
 Temperature   298.150 Kelvin.  Pressure   1.00000 Atm.
 Atom     1 has atomic number  8 and mass  15.99491

 Molecular mass:   194.04015 amu.
 Principal axes and moments of inertia in atomic units:
                           1         2         3
     Eigenvalues --   898.649507244.924688131.79785
           X            0.99994  -0.01134   0.00012
           Y            0.01134   0.99994   0.00004
           Z           -0.00012  -0.00004   1.00000
 This molecule is an asymmetric top.
 Rotational symmetry number  1.
 Warning -- assumption of classical behavior for rotation
           may cause significant error
 Rotational temperatures (Kelvin)      0.09638     0.01196     0.01065
 Rotational constants (GHZ):           2.00828     0.24910     0.22194
 Zero-point vibrational energy     452190.1 (Joules/Mol)
                                  108.07602 (Kcal/Mol)
 Warning -- explicit consideration of  18 degrees of freedom as
           vibrations may cause significant error
 Vibrational temperatures:     31.64    71.17    96.48   131.17   169.58
          (Kelvin)            253.35   262.57   294.17   312.45   416.71
                              520.50   567.37   568.62   580.54   592.91
                              672.41   721.48   748.41   893.83   909.47
                             1004.00  1010.79  1054.40  1130.17  1151.90
                             1182.75  1197.82  1267.02  1316.83  1333.96
                             1357.62  1358.47  1415.55  1428.57  1506.24
                             1579.38  1662.95  1683.41  1736.98  1847.03
                             1861.95  1882.09  1889.64  1894.19  1988.19
                             2051.35  2061.36  2076.41  2173.53  2267.05
                             2273.02  2340.21  2392.56  4323.77  4441.79
                             4466.27  4475.20  4487.62  4494.54  4516.03
                             4532.28  4540.71  5301.39

 Zero-point correction=                           0.172230 (Hartree/Particle)
 Thermal correction to Energy=                    0.185475
 Thermal correction to Enthalpy=                  0.186420
 Thermal correction to Gibbs Free Energy=         0.130661
 Sum of electronic and zero-point Energies=           -934.733400
 Sum of electronic and thermal Energies=              -934.720155
 Sum of electronic and thermal Enthalpies=            -934.719210
 Sum of electronic and thermal Free Energies=         -934.774969

                     E (Thermal)             CV                S
                      KCal/Mol        Cal/Mol-Kelvin    Cal/Mol-Kelvin
 Total                  116.388             48.785            117.354
 Electronic               0.000              0.000              0.000
 Translational            0.889              2.981             41.694
 Rotational               0.889              2.981             32.337
 Vibrational            114.610             42.824             43.322
 Vibration     1          0.593              1.985              6.446
 Vibration     2          0.595              1.978              4.839
 Vibration     3          0.598              1.970              4.238
 Vibration     4          0.602              1.955              3.635
 Vibration     5          0.608              1.934              3.135
 Vibration     6          0.628              1.872              2.370
 Vibration     7          0.630              1.864              2.303
 Vibration     8          0.640              1.834              2.093
 Vibration     9          0.646              1.815              1.983
 Vibration    10          0.686              1.693              1.476
 Vibration    11          0.736              1.551              1.115
 Vibration    12          0.761              1.482              0.984
 Vibration    13          0.762              1.480              0.980
 Vibration    14          0.769              1.463              0.950
 Vibration    15          0.776              1.444              0.919
 Vibration    16          0.825              1.322              0.745
 Vibration    17          0.857              1.247              0.654
 Vibration    18          0.875              1.205              0.610

 Optimization completed.
    -- Stationary point found.
 Normal termination of Gaussian 09 at Fri Nov  1 10:25:39 2019.
