 Gaussian 09, Revision A.01,
 Gaussian 09:  EM64L-G09RevA.01  8-May-2009

 ----------------------------------
 # pbepbe/sto-3g opt(maxcycles=500)
 ----------------------------------

 -----
 Title
 -----
 Symbolic Z-matrix:
 Charge =  0 Multiplicity = 1

 SCF Done:  E(RPBE-PBE) =  -923.743031608     A.U. after   17 cycles
 SCF Done:  E(RPBE-PBE) =  -923.781720082     A.U. after   19 cycles
 SCF Done:  E(RPBE-PBE) =  -923.789345812     A.U. after   17 cycles
 SCF Done:  E(RPBE-PBE) =  -923.792211380     A.U. after   15 cycles
 SCF Done:  E(RPBE-PBE) =  -923.792688363     A.U. after   14 cycles
 SCF Done:  E(RPBE-PBE) =  -923.792875406     A.U. after   17 cycles
 SCF Done:  E(RPBE-PBE) =  -923.793273402     A.U. after   14 cycles
 SCF Done:  E(RPBE-PBE) =  -923.793297635     A.U. after   13 cycles
 SCF Done:  E(RPBE-PBE) =  -923.793299767     A.U. after   20 cycles
 SCF Done:  E(RPBE-PBE) =  -923.793300236     A.U. after    9 cycles
 SCF Done:  E(RPBE-PBE) =  -923.793300290     A.U. after    9 cycles
 Optimization completed.
    -- Stationary point found.

                         Standard orientation:
 ---------------------------------------------------------------------
 Center     Atomic      Atomic             Coordinates (Angstroms)
 Number     Number       Type             X           Y           Z
 ---------------------------------------------------------------------
      1          8           0        5.309770    0.623223    0.000129
      2         16           0       -4.208438    0.292011   -0.000214
      3          8           0       -2.860075   -2.049059   -0.000465
      4          6           0        1.164355   -0.436412   -0.000059
      5          6           0        1.538879    0.942027   -0.000801
      6          6           0        2.195922   -1.430772    0.000683
      7          6           0        2.893317    1.311713   -0.000760
      8          6           0        3.547987   -1.057513    0.000726
      9          6           0        3.927093    0.321938    0.000019
     10          6           0       -0.244499   -0.899413   -0.000009
     11          6           0       -1.359311   -0.107200   -0.000331
     12          6           0       -2.719766   -0.785054   -0.000321
     13          1           0        0.764329    1.730256   -0.001423
     14          1           0        1.919279   -2.501747    0.001234
     15          1           0        3.173657    2.381354   -0.001339
     16          1           0        4.342718   -1.824052    0.001307
     17          1           0       -0.409954   -1.997213    0.000335
     18          1           0       -1.285483    0.991591   -0.000705
     19          1           0        5.307526    1.659491   -0.000443
     20          6           0       -3.562996    2.000625    0.001249
     21          1           0       -4.440408    2.675723    0.002128
     22          1           0       -2.960281    2.230618   -0.899144
     23          1           0       -2.959827    2.228866    0.901775
 ---------------------------------------------------------------------

 The electronic state is 1-A.
 Alpha  occ. eigenvalues --  -86.90971 -18.58796 -18.47794  -9.77172  -9.74733
 Alpha  occ. eigenvalues --   -9.72274  -9.72186  -9.71963  -9.71585  -9.71569
 Alpha  occ. eigenvalues --   -9.71297  -9.71177  -9.69964  -7.34055  -5.36198
 Alpha  occ. eigenvalues --   -5.35250  -5.33902  -0.91731  -0.85347  -0.72577
 Alpha  occ. eigenvalues --   -0.66847  -0.65389  -0.63375  -0.60597  -0.54702
 Alpha  occ. eigenvalues --   -0.51587  -0.51168  -0.46423  -0.43002  -0.40989
 Alpha  occ. eigenvalues --   -0.38652  -0.36022  -0.35688  -0.33813  -0.33585
 Alpha  occ. eigenvalues --   -0.33260  -0.32203  -0.29326  -0.29163  -0.27590
 Alpha  occ. eigenvalues --   -0.26129  -0.25619  -0.23639  -0.23106  -0.22637
 Alpha  occ. eigenvalues --   -0.19637  -0.16820  -0.16216  -0.10663  -0.09025
 Alpha  occ. eigenvalues --   -0.07315
 Alpha virt. eigenvalues --    0.00745   0.05450   0.08093   0.14366   0.18926
 Alpha virt. eigenvalues --    0.19041   0.20254   0.21469   0.25164   0.31860
 Alpha virt. eigenvalues --    0.32796   0.34664   0.36699   0.37335   0.38152

 Mulliken atomic charges:
              1
     1  O   -0.174483
     2  S    0.163344
     3  O   -0.177705
     4  C   -0.019499
     5  C   -0.080435
     6  C   -0.078518
     7  C   -0.113635
     8  C   -0.101124
     9  C    0.065333
    10  C   -0.074216
    11  C   -0.111378
    12  C    0.017546
    13  H    0.087410
    14  H    0.091232
    15  H    0.075930
    16  H    0.092015
    17  H    0.095905
    18  H    0.080000
    19  H    0.209276
    20  C   -0.316735
    21  H    0.094000
    22  H    0.087858
    23  H    0.087878
 Sum of Mulliken atomic charges =   0.00000

 Dipole moment (field-independent basis, Debye):
    X=              2.5979    Y=              3.7117    Z=              0.0004  Tot=              4.5305
 Quadrupole moment (field-independent basis, Debye-Ang):
   XX=            -73.4418   YY=            -69.4589   ZZ=            -77.4644
   XY=             -1.1920   XZ=             -0.0064   YZ=             -0.0042

 Normal termination of Gaussian 09 at Thu Oct 31 22:52:48 2019.
