 Gaussian 09, Revision A.01,
 Gaussian 09:  EM64L-G09RevA.01  8-May-2009

 ---------------------------------------------------
 # pbepbe/6-31G** force nosymm td(root=3,nstates=10)
 ---------------------------------------------------

 -----
 Title
 -----
 Symbolic Z-matrix:
 Charge =  0 Multiplicity = 1

                          Input orientation:
 ---------------------------------------------------------------------
 Center     Atomic      Atomic             Coordinates (Angstroms)
 Number     Number       Type             X           Y           Z
 ---------------------------------------------------------------------
      1          8           0        5.225377    0.624520   -0.000530
      2         16           0       -4.161568    0.247084    0.000776
      3          8           0       -2.841869   -1.997013    0.000534
      4          6           0        1.166939   -0.429177   -0.000036
      5          6           0        1.549143    0.937423    0.000032
      6          6           0        2.200595   -1.402062   -0.000261
      7          6           0        2.889395    1.312330   -0.000121
      8          6           0        3.545264   -1.041719   -0.000419
      9          6           0        3.899159    0.323198   -0.000356
     10          6           0       -0.213329   -0.876292    0.000110
     11          6           0       -1.347293   -0.114931    0.000291
     12          6           0       -2.654859   -0.775341    0.000398
     13          1           0        0.785435    1.720240    0.000210
     14          1           0        1.929650   -2.462830   -0.000314
     15          1           0        3.165231    2.372113   -0.000062
     16          1           0        4.335555   -1.796651   -0.000596
     17          1           0       -0.363049   -1.964454    0.000059
     18          1           0       -1.305576    0.976066    0.000349
     19          1           0        5.333318    1.595939   -0.000496
     20          6           0       -3.646559    2.004418    0.000019
     21          1           0       -4.581666    2.583649    0.000380
     22          1           0       -3.075927    2.256543   -0.904810
     23          1           0       -3.074927    2.257026    0.904082
 ---------------------------------------------------------------------

 SCF Done:  E(RPBE-PBE) =  -934.890993106     A.U. after   18 cycles

 Excitation energies and oscillator strengths:

 Excited state symmetry could not be determined.
 Excited State   1:      Singlet-?Sym    2.9448 eV  421.03 nm  f=0.0000  <S**2>=0.000
      50 -> 52         0.70672

 Excited state symmetry could not be determined.
 Excited State   2:      Singlet-?Sym    3.1888 eV  388.82 nm  f=0.1167  <S**2>=0.000
      49 -> 52         0.59194
      51 -> 52         0.36994

 Excited state symmetry could not be determined.
 Excited State   3:      Singlet-?Sym    3.6736 eV  337.50 nm  f=0.5655  <S**2>=0.000
      47 -> 52         0.12964
      49 -> 52        -0.35357
      51 -> 52         0.58184
      51 -> 54        -0.12190
 This state for optimization and/or second-order correction.
 Copying the excited state density for this state as the 1-particle RhoCI density.

 Excited state symmetry could not be determined.
 Excited State   4:      Singlet-?Sym    4.0637 eV  305.10 nm  f=0.0018  <S**2>=0.000
      48 -> 52         0.55085
      51 -> 53         0.42998

 Excited state symmetry could not be determined.
 Excited State   5:      Singlet-?Sym    4.1353 eV  299.82 nm  f=0.0000  <S**2>=0.000
      50 -> 53         0.70702

 Excited state symmetry could not be determined.
 Excited State   6:      Singlet-?Sym    4.1861 eV  296.18 nm  f=0.0028  <S**2>=0.000
      48 -> 52        -0.21144
      49 -> 53         0.65582
      51 -> 53         0.15063

 Excited state symmetry could not be determined.
 Excited State   7:      Singlet-?Sym    4.6576 eV  266.20 nm  f=0.0584  <S**2>=0.000
      47 -> 52        -0.16530
      48 -> 52        -0.34714
      48 -> 54         0.18037
      49 -> 53        -0.22869
      51 -> 53         0.49379

 Excited state symmetry could not be determined.
 Excited State   8:      Singlet-?Sym    4.8409 eV  256.12 nm  f=0.2030  <S**2>=0.000
      47 -> 52         0.57052
      48 -> 52        -0.10179
      49 -> 54         0.16069
      51 -> 52        -0.15697
      51 -> 53         0.11948
      51 -> 54        -0.27517

 Excited state symmetry could not be determined.
 Excited State   9:      Singlet-?Sym    5.0896 eV  243.60 nm  f=0.0001  <S**2>=0.000
      50 -> 54         0.70467

 Excited state symmetry could not be determined.
 Excited State  10:      Singlet-?Sym    5.1526 eV  240.63 nm  f=0.0003  <S**2>=0.000
      46 -> 52         0.70481

 Alpha  occ. eigenvalues --  -88.06483 -18.82815 -18.75000  -9.98949  -9.98269
 Alpha  occ. eigenvalues --   -9.93132  -9.92564  -9.92410  -9.92384  -9.92351
 Alpha  occ. eigenvalues --   -9.92194  -9.91569  -9.91156  -7.67461  -5.69872
 Alpha  occ. eigenvalues --   -5.69333  -5.68751  -0.99287  -0.93030  -0.79064
 Alpha  occ. eigenvalues --   -0.73110  -0.71305  -0.69245  -0.67032  -0.60853
 Alpha  occ. eigenvalues --   -0.58160  -0.57377  -0.52759  -0.50671  -0.46862
 Alpha  occ. eigenvalues --   -0.45196  -0.42741  -0.41141  -0.40029  -0.38865
 Alpha  occ. eigenvalues --   -0.38686  -0.38286  -0.37704  -0.35647  -0.35056
 Alpha  occ. eigenvalues --   -0.34517  -0.34015  -0.32234  -0.31930  -0.30377
 Alpha  occ. eigenvalues --   -0.28253  -0.25415  -0.24133  -0.20211  -0.19993
 Alpha  occ. eigenvalues --   -0.19471
 Alpha virt. eigenvalues --   -0.09529  -0.04806  -0.01501   0.01574   0.02298
 Alpha virt. eigenvalues --    0.04602   0.04736   0.05251   0.07024   0.09715
 Alpha virt. eigenvalues --    0.10377   0.11527   0.11795   0.12106   0.13279

 Mulliken atomic charges:
              1
     1  O   -0.509085
     2  S    0.129870
     3  O   -0.424908
     4  C    0.120349
     5  C   -0.123442
     6  C   -0.141359
     7  C   -0.143470
     8  C   -0.112936
     9  C    0.309629
    10  C   -0.101229
    11  C   -0.133452
    12  C    0.199429
    13  H    0.100795
    14  H    0.112899
    15  H    0.095677
    16  H    0.117350
    17  H    0.131667
    18  H    0.093333
    19  H    0.321894
    20  C   -0.540738
    21  H    0.170195
    22  H    0.163775
    23  H    0.163758
 Sum of Mulliken atomic charges =   0.00000

 Dipole moment (field-independent basis, Debye):
    X=              4.6925    Y=              4.9506    Z=             -0.0013  Tot=              6.8212
 Quadrupole moment (field-independent basis, Debye-Ang):
   XX=            -85.0177   YY=            -73.6787   ZZ=            -85.9087
   XY=             -5.2958   XZ=              0.0034   YZ=              0.0013

 Normal termination of Gaussian 09 at Fri Nov  1 11:02:43 2019.
